/*--------------------------------*- C++ -*----------------------------------*\
| =========                 |                                                 |
| \\      /  F ield         | foam-extend: Open Source CFD                    |
|  \\    /   O peration     | Version:     4.1                                |
|   \\  /    A nd           | Web:         http://www.foam-extend.org         |
|    \\/     M anipulation  |                                                 |
\*---------------------------------------------------------------------------*/
FoamFile
{
    version     2.0;
    format      ascii;
    class       volScalarField;
    location    "70000";
    object      p;
}
// * * * * * * * * * * * * * * * * * * * * * * * * * * * * * * * * * * * * * //

dimensions      [0 2 -2 0 0 0 0];

internalField   nonuniform List<scalar> 
15920
(
1.954400872e-08
1.671893734e-08
1.452736313e-08
1.340863854e-08
1.261039746e-08
1.17866368e-08
1.098480545e-08
1.028281081e-08
9.684027552e-09
9.166806912e-09
8.720170282e-09
8.340706275e-09
8.023411177e-09
7.760246048e-09
7.542235696e-09
7.360800119e-09
7.208040372e-09
7.076818867e-09
6.960896953e-09
6.855025672e-09
6.754931935e-09
6.657234659e-09
6.559333907e-09
6.459293773e-09
6.355725857e-09
6.247681509e-09
6.134557361e-09
6.016013583e-09
5.891905935e-09
5.762229772e-09
5.627085275e-09
5.486663554e-09
5.341179222e-09
5.190874693e-09
5.036015493e-09
4.876896917e-09
4.713786358e-09
4.546963629e-09
4.376785431e-09
4.203556401e-09
4.02760321e-09
3.84928347e-09
3.668970678e-09
3.487056345e-09
3.30395253e-09
3.120075856e-09
2.935951207e-09
2.752013409e-09
2.568762471e-09
2.386718273e-09
1.424338923e-08
1.389285394e-08
1.332505257e-08
1.279663017e-08
1.228548057e-08
1.171064028e-08
1.109767297e-08
1.050202609e-08
9.949514901e-09
9.446319857e-09
8.996313349e-09
8.603023463e-09
8.266129539e-09
7.981022732e-09
7.740719063e-09
7.537649044e-09
7.364461983e-09
7.214333898e-09
7.081177379e-09
6.959781776e-09
6.845842075e-09
6.735901564e-09
6.627256315e-09
6.517852813e-09
6.406169365e-09
6.291113823e-09
6.171945081e-09
6.048196164e-09
5.919606343e-09
5.786060755e-09
5.647533626e-09
5.504082598e-09
5.355897146e-09
5.203200757e-09
5.046227824e-09
4.885265534e-09
4.720645814e-09
4.55247476e-09
4.380947295e-09
4.206460577e-09
4.029381954e-09
3.850042003e-09
3.668797819e-09
3.486045402e-09
3.302203811e-09
3.117720571e-09
2.932980658e-09
2.748521438e-09
2.564844037e-09
2.382465897e-09
1.372050821e-08
1.355752489e-08
1.311582716e-08
1.255660084e-08
1.201688832e-08
1.149969025e-08
1.098547331e-08
1.04857471e-08
1.001776585e-08
9.588007191e-09
9.196896015e-09
8.844495544e-09
8.530395696e-09
8.252468819e-09
8.007235761e-09
7.790645614e-09
7.598499688e-09
7.426595339e-09
7.270853842e-09
7.127472386e-09
6.993039386e-09
6.864588645e-09
6.73960801e-09
6.616021282e-09
6.492175894e-09
6.36679648e-09
6.23891254e-09
6.107806711e-09
5.972972706e-09
5.83407596e-09
5.690921845e-09
5.543438588e-09
5.391657897e-09
5.235670389e-09
5.075607192e-09
4.911638894e-09
4.743950608e-09
4.572716015e-09
4.398188428e-09
4.220705362e-09
4.040599528e-09
3.858198291e-09
3.673864749e-09
3.488008238e-09
3.301039662e-09
3.113397025e-09
2.925546612e-09
2.737998711e-09
2.551273435e-09
2.365908529e-09
1.2730158e-08
1.258747219e-08
1.230384516e-08
1.194416668e-08
1.156867828e-08
1.118901667e-08
1.079896328e-08
1.040551299e-08
1.002322595e-08
9.661438812e-09
9.323467191e-09
9.010700873e-09
8.724018451e-09
8.463220154e-09
8.226858117e-09
8.012645055e-09
7.81786311e-09
7.6395984e-09
7.474890533e-09
7.320870434e-09
7.174874991e-09
7.034517647e-09
6.897719243e-09
6.76271381e-09
6.62803935e-09
6.49251028e-09
6.355181389e-09
6.215317285e-09
6.072364993e-09
5.925926713e-09
5.775734312e-09
5.621627662e-09
5.46353683e-09
5.301464679e-09
5.135471875e-09
4.965667557e-09
4.792204665e-09
4.615271867e-09
4.435094998e-09
4.251941997e-09
4.066113878e-09
3.877943553e-09
3.687808123e-09
3.496181005e-09
3.303379522e-09
3.109887727e-09
2.916221711e-09
2.722909032e-09
2.530500968e-09
2.339571035e-09
1.209641909e-08
1.202572942e-08
1.18545046e-08
1.160401758e-08
1.131240343e-08
1.100119061e-08
1.067713628e-08
1.034683871e-08
1.001994904e-08
9.704405919e-09
9.404462634e-09
9.122215781e-09
8.858876512e-09
8.614811559e-09
8.389392395e-09
8.181204085e-09
7.988380434e-09
7.808836763e-09
7.64040282e-09
7.480922909e-09
7.328341614e-09
7.180764808e-09
7.03649313e-09
6.894035171e-09
6.752107971e-09
6.609628726e-09
6.465700271e-09
6.31959382e-09
6.170731199e-09
6.018666754e-09
5.863070253e-09
5.703711997e-09
5.540450895e-09
5.373222801e-09
5.202028689e-09
5.026924519e-09
4.848014752e-09
4.665448285e-09
4.479455761e-09
4.290273062e-09
4.098171903e-09
3.903469093e-09
3.706477544e-09
3.508186915e-09
3.308380579e-09
3.107693001e-09
2.906715194e-09
2.706016462e-09
2.506193569e-09
2.307871576e-09
1.161444966e-08
1.156446973e-08
1.143941141e-08
1.124931257e-08
1.102047081e-08
1.077092884e-08
1.050805843e-08
1.02367298e-08
9.963307021e-09
9.694030459e-09
9.433180439e-09
9.18324328e-09
8.94570318e-09
8.721331257e-09
8.51016658e-09
8.311600462e-09
8.124575707e-09
7.947763888e-09
7.779680674e-09
7.618770478e-09
7.463480441e-09
7.312320408e-09
7.163903897e-09
7.016972239e-09
6.870406894e-09
6.723233312e-09
6.574617977e-09
6.423860682e-09
6.270384506e-09
6.113725727e-09
5.953523603e-09
5.789509572e-09
5.621498367e-09
5.449381593e-09
5.273121852e-09
5.092743262e-09
4.908328115e-09
4.719909892e-09
4.527807278e-09
4.332239884e-09
4.13347904e-09
3.931884636e-09
3.727926178e-09
3.521476046e-09
3.313691545e-09
3.104963286e-09
2.895802097e-09
2.686810403e-09
2.478625109e-09
2.271906587e-09
1.123662037e-08
1.119894037e-08
1.110578344e-08
1.096240936e-08
1.078505896e-08
1.058596571e-08
1.037138534e-08
1.014584797e-08
9.914531821e-09
9.68257803e-09
9.453923875e-09
9.231159424e-09
9.01595962e-09
8.809362636e-09
8.61181848e-09
8.423232125e-09
8.243081234e-09
8.070549439e-09
7.904629507e-09
7.744200177e-09
7.588090621e-09
7.435134438e-09
7.284210225e-09
7.134268916e-09
6.98435079e-09
6.833594874e-09
6.681242484e-09
6.526636685e-09
6.369218809e-09
6.208523055e-09
6.044171204e-09
5.875867033e-09
5.703388521e-09
5.526586143e-09
5.345381851e-09
5.159757074e-09
4.969751163e-09
4.775568154e-09
4.577249366e-09
4.375047324e-09
4.169279911e-09
3.960298123e-09
3.748488722e-09
3.534236253e-09
3.318171179e-09
3.100835595e-09
2.882814319e-09
2.66475908e-09
2.447365308e-09
2.231360394e-09
1.09385594e-08
1.090971617e-08
1.083818371e-08
1.072657471e-08
1.058543358e-08
1.042333138e-08
1.024545041e-08
1.005587016e-08
9.858832062e-09
9.658420287e-09
9.457940691e-09
9.259779011e-09
9.065600004e-09
8.876524549e-09
8.693189374e-09
8.515784143e-09
8.344126993e-09
8.177759053e-09
8.016026497e-09
7.858144373e-09
7.703249298e-09
7.550444447e-09
7.3988358e-09
7.247559165e-09
7.095799256e-09
6.942802539e-09
6.787885016e-09
6.630436188e-09
6.469922277e-09
6.305888632e-09
6.13794682e-09
5.965780616e-09
5.78914851e-09
5.607876042e-09
5.421847722e-09
5.231019207e-09
5.035417988e-09
4.835139173e-09
4.630302889e-09
4.421137513e-09
4.20794539e-09
3.991074858e-09
3.770928241e-09
3.547971352e-09
3.322763385e-09
3.095916075e-09
2.868085786e-09
2.63998276e-09
2.412365173e-09
2.186030664e-09
1.070168124e-08
1.067881477e-08
1.062200561e-08
1.053269919e-08
1.041831542e-08
1.028498287e-08
1.013662536e-08
9.976507164e-09
9.807992743e-09
9.634321327e-09
9.45822568e-09
9.281816707e-09
9.106663941e-09
8.933891089e-09
8.764223186e-09
8.598019205e-09
8.435322677e-09
8.275926037e-09
8.119431738e-09
7.965303501e-09
7.812909784e-09
7.661561478e-09
7.510543759e-09
7.35914174e-09
7.206660055e-09
7.052437558e-09
6.895857856e-09
6.736354146e-09
6.573408061e-09
6.406587936e-09
6.235504653e-09
6.05982145e-09
5.879268811e-09
5.693646259e-09
5.502817349e-09
5.306712077e-09
5.105327807e-09
4.898730503e-09
4.687055155e-09
4.470509855e-09
4.249377899e-09
4.024014367e-09
3.794846981e-09
3.562378805e-09
3.327192723e-09
3.089942431e-09
2.851342022e-09
2.612164828e-09
2.373239569e-09
2.135442654e-09
1.051319822e-08
1.049463549e-08
1.044852241e-08
1.037571474e-08
1.028164658e-08
1.017072542e-08
1.004580086e-08
9.909391988e-09
9.764180571e-09
9.612778584e-09
9.457441263e-09
9.299982947e-09
9.141815873e-09
8.983999866e-09
8.827270756e-09
8.672064192e-09
8.518550402e-09
8.366678335e-09
8.216220341e-09
8.066812172e-09
7.91798865e-09
7.769214629e-09
7.61991176e-09
7.46948149e-09
7.317324653e-09
7.162853666e-09
7.005505277e-09
6.844754442e-09
6.680120697e-09
6.511141548e-09
6.337421549e-09
6.158623171e-09
5.974461875e-09
5.784709108e-09
5.58919921e-09
5.387833355e-09
5.180581678e-09
4.967486907e-09
4.748666916e-09
4.524316848e-09
4.29471567e-09
4.0602279e-09
3.821302256e-09
3.578472097e-09
3.332356461e-09
3.083656495e-09
2.833149311e-09
2.581683197e-09
2.330171456e-09
2.079583304e-09
1.036397444e-08
1.034863826e-08
1.031053602e-08
1.025017357e-08
1.017166151e-08
1.007824586e-08
9.971998263e-09
9.854840704e-09
9.728896025e-09
9.596259825e-09
9.458768322e-09
9.317939932e-09
9.174999637e-09
9.030902725e-09
8.886346171e-09
8.74178231e-09
8.597442273e-09
8.453366177e-09
8.309435116e-09
8.165401115e-09
8.020916846e-09
7.875558245e-09
7.728848863e-09
7.580274192e-09
7.429308509e-09
7.275423878e-09
7.118097293e-09
6.956821963e-09
6.791119119e-09
6.620537939e-09
6.444673538e-09
6.263168334e-09
6.075710285e-09
5.882039924e-09
5.681959275e-09
5.475336605e-09
5.2621106e-09
5.042295988e-09
4.815989093e-09
4.583373024e-09
4.34472289e-09
4.100408999e-09
3.850898292e-09
3.596755593e-09
3.33864401e-09
3.077322571e-09
2.813641163e-09
2.548533992e-09
2.283011435e-09
2.018149684e-09
1.024716809e-08
1.023430699e-08
1.020234932e-08
1.015159004e-08
1.008523125e-08
1.000572207e-08
9.914571057e-09
9.813223639e-09
9.703339973e-09
9.586589144e-09
9.464455342e-09
9.338192666e-09
9.208841342e-09
9.077237202e-09
8.944011756e-09
8.809597671e-09
8.674243911e-09
8.538035761e-09
8.400916335e-09
8.262705284e-09
8.123141156e-09
7.981866189e-09
7.838476708e-09
7.692524796e-09
7.543527264e-09
7.390986834e-09
7.234405488e-09
7.073289895e-09
6.907161149e-09
6.735563191e-09
6.558069985e-09
6.374292298e-09
6.183884058e-09
5.986549404e-09
5.782050273e-09
5.570213816e-09
5.350939875e-09
5.124208811e-09
4.890089314e-09
4.64874563e-09
4.400443969e-09
4.145557856e-09
3.884571998e-09
3.618084674e-09
3.34680847e-09
3.071568517e-09
2.793297653e-09
2.513028856e-09
2.231885389e-09
1.951068645e-09
1.015753209e-08
1.014661414e-08
1.0119482e-08
1.007629933e-08
1.001961729e-08
9.951319222e-09
9.87250514e-09
9.784253462e-09
9.687855941e-09
9.584638199e-09
9.475794327e-09
9.362349112e-09
9.245169548e-09
9.124967658e-09
9.002294431e-09
8.877539157e-09
8.750938655e-09
8.622592164e-09
8.492480347e-09
8.360418104e-09
8.226233081e-09
8.089613349e-09
7.950180223e-09
7.807519404e-09
7.661179931e-09
7.510684894e-09
7.355543699e-09
7.195260842e-09
7.029344897e-09
6.857317341e-09
6.678720542e-09
6.493126563e-09
6.300145395e-09
6.099432778e-09
5.890699221e-09
5.673720047e-09
5.448345585e-09
5.214511446e-09
4.972248722e-09
4.721693643e-09
4.463096473e-09
4.196829346e-09
3.92339254e-09
3.643418688e-09
3.357674597e-09
3.06706003e-09
2.772602896e-09
2.475450835e-09
2.176859549e-09
1.878178136e-09
1.009095148e-08
1.008159239e-08
1.005833074e-08
1.002124576e-08
9.972407011e-09
9.913287426e-09
9.844691073e-09
9.76741888e-09
9.682473165e-09
9.590903072e-09
9.493662989e-09
9.391580848e-09
9.285366846e-09
9.17561292e-09
9.062784737e-09
8.947217616e-09
8.829112973e-09
8.708552445e-09
8.585512061e-09
8.459921112e-09
8.331513012e-09
8.200016397e-09
8.065089022e-09
7.926331878e-09
7.783303048e-09
7.635527422e-09
7.482506505e-09
7.323727765e-09
7.158673555e-09
6.986830024e-09
6.807696011e-09
6.620792152e-09
6.425670202e-09
6.221922908e-09
6.009195131e-09
5.78719609e-09
5.555712135e-09
5.314619784e-09
5.063898758e-09
4.80364471e-09
4.53408134e-09
4.255571484e-09
3.968626448e-09
3.673912758e-09
3.372255596e-09
3.064638362e-09
2.752197916e-09
2.436215254e-09
2.118101803e-09
1.799381713e-09
1.004412908e-08
1.003604727e-08
1.001595196e-08
9.983868311e-09
9.941502173e-09
9.890022915e-09
9.830016201e-09
9.762073576e-09
9.686972064e-09
9.605539222e-09
9.518532404e-09
9.42661302e-09
9.330354054e-09
9.230236821e-09
9.12663948e-09
9.019840847e-09
8.910005e-09
8.797193067e-09
8.68136734e-09
8.562408986e-09
8.440102725e-09
8.314172997e-09
8.184277754e-09
8.050015359e-09
7.910936411e-09
7.766552079e-09
7.616341945e-09
7.459762649e-09
7.296256581e-09
7.12526064e-09
6.946215272e-09
6.758574074e-09
6.561814376e-09
6.355449049e-09
6.139039709e-09
5.912211227e-09
5.67466719e-09
5.426206028e-09
5.166737573e-09
4.896299701e-09
4.615074626e-09
4.323404179e-09
4.021803081e-09
3.710968976e-09
3.391788251e-09
3.065337072e-09
2.732877126e-09
2.395845466e-09
2.055838188e-09
1.714588472e-09
1.001436753e-08
1.000736051e-08
9.98990966e-09
9.962006178e-09
9.925079007e-09
9.880075914e-09
9.827404127e-09
9.767502069e-09
9.700974455e-09
9.628473074e-09
9.550595201e-09
9.467861535e-09
9.380726469e-09
9.289574598e-09
9.194709411e-09
9.096335216e-09
8.994573757e-09
8.889455877e-09
8.780921647e-09
8.668831508e-09
8.552968664e-09
8.433043479e-09
8.308699632e-09
8.179520977e-09
8.045038482e-09
7.904736422e-09
7.758059325e-09
7.604419715e-09
7.443206039e-09
7.273790909e-09
7.095540141e-09
6.907822986e-09
6.710023908e-09
6.50155604e-09
6.2818764e-09
6.050502775e-09
5.807032142e-09
5.551160391e-09
5.282703218e-09
5.001617757e-09
4.708024192e-09
4.402226367e-09
4.084730106e-09
3.756257812e-09
3.417758009e-09
3.070408888e-09
2.71561513e-09
2.354997104e-09
1.990371496e-09
1.623723617e-09
9.999409417e-09
9.993310659e-09
9.978104484e-09
9.953757722e-09
9.921463916e-09
9.882069542e-09
9.835775183e-09
9.782920339e-09
9.723978034e-09
9.659459002e-09
9.589831086e-09
9.515502329e-09
9.436826473e-09
9.354100396e-09
9.267551647e-09
9.177329738e-09
9.083508256e-09
8.986080729e-09
8.884960463e-09
8.779984008e-09
8.670913065e-09
8.557437258e-09
8.439178675e-09
8.315696016e-09
8.186489067e-09
8.051003764e-09
7.908637844e-09
7.758747028e-09
7.600651802e-09
7.433645041e-09
7.257000956e-09
7.069985757e-09
6.8718703e-09
6.661944899e-09
6.439536471e-09
6.204027954e-09
5.95488004e-09
5.691655165e-09
5.414043661e-09
5.121891561e-09
4.815228946e-09
4.494297346e-09
4.159574743e-09
3.811796645e-09
3.451971497e-09
3.081388528e-09
2.701616531e-09
2.314492367e-09
1.922097886e-09
1.526725167e-09
9.997511287e-09
9.992140266e-09
9.978859607e-09
9.957628855e-09
9.929441432e-09
9.894824894e-09
9.85411908e-09
9.80753132e-09
9.755402232e-09
9.698124145e-09
9.636058119e-09
9.569518815e-09
9.498776615e-09
9.424053099e-09
9.3455118e-09
9.263250552e-09
9.177296811e-09
9.087606138e-09
8.994060759e-09
8.896469052e-09
8.794566296e-09
8.688015994e-09
8.576411498e-09
8.459278143e-09
8.336076163e-09
8.206204075e-09
8.06900249e-09
7.923758579e-09
7.769711552e-09
7.606059396e-09
7.431967341e-09
7.246578528e-09
7.049027128e-09
6.838454247e-09
6.614026774e-09
6.374959414e-09
6.120540142e-09
5.850159233e-09
5.563341709e-09
5.259782544e-09
4.93938336e-09
4.602288832e-09
4.248920943e-09
3.880009256e-09
3.496614964e-09
3.100145682e-09
2.692358062e-09
2.27534613e-09
1.851513668e-09
1.423530187e-09
1.000672275e-08
1.000204525e-08
9.990477922e-09
9.971973204e-09
9.947362989e-09
9.917139195e-09
9.881487379e-09
9.840568065e-09
9.794644788e-09
9.744021107e-09
9.688975444e-09
9.629746326e-09
9.566534114e-09
9.499497557e-09
9.428745129e-09
9.354326824e-09
9.276229043e-09
9.194371786e-09
9.108605892e-09
9.018710853e-09
8.92439359e-09
8.825287759e-09
8.72095353e-09
8.610878022e-09
8.494476217e-09
8.371092246e-09
8.240001185e-09
8.100411629e-09
7.951469491e-09
7.79226336e-09
7.621831986e-09
7.439174408e-09
7.243263036e-09
7.033060102e-09
6.807537856e-09
6.56570316e-09
6.306627041e-09
6.029479504e-09
5.733569283e-09
5.418387827e-09
5.083656332e-09
4.729374059e-09
4.355865634e-09
3.963824624e-09
3.554350133e-09
3.12897213e-09
2.689660837e-09
2.238816551e-09
1.779237339e-09
1.314063271e-09
1.002574098e-08
1.002169938e-08
1.001167941e-08
9.995632486e-09
9.974269825e-09
9.948002629e-09
9.916949322e-09
9.88122589e-09
9.841036437e-09
9.796616216e-09
9.748176744e-09
9.695894194e-09
9.639912126e-09
9.580337833e-09
9.517233643e-09
9.45060898e-09
9.380414896e-09
9.306539897e-09
9.228806015e-09
9.14696518e-09
9.060696221e-09
8.969602497e-09
8.873209942e-09
8.770965485e-09
8.662235758e-09
8.546306131e-09
8.422380222e-09
8.289580213e-09
8.146948461e-09
7.99345092e-09
7.827982992e-09
7.649378275e-09
7.456420746e-09
7.247860982e-09
7.022437217e-09
6.778902256e-09
6.51605717e-09
6.232792242e-09
5.928134989e-09
5.601304631e-09
5.251772053e-09
4.87932372e-09
4.484126912e-09
4.066792293e-09
3.628429011e-09
3.170686294e-09
2.695774588e-09
2.206460021e-09
1.706027883e-09
1.198212318e-09
1.005325611e-08
1.004978686e-08
1.004117612e-08
1.002737635e-08
1.00089903e-08
9.986357259e-09
9.959559084e-09
9.928676201e-09
9.893865278e-09
9.855307637e-09
9.813162413e-09
9.767557536e-09
9.718592132e-09
9.666332733e-09
9.61080495e-09
9.551985733e-09
9.489797408e-09
9.424102532e-09
9.354698865e-09
9.281314471e-09
9.203603206e-09
9.121140667e-09
9.033420357e-09
8.939849977e-09
8.839747776e-09
8.732339109e-09
8.616753264e-09
8.492021071e-09
8.357073743e-09
8.210743631e-09
8.051767457e-09
7.878792565e-09
7.690387012e-09
7.485054505e-09
7.261255462e-09
7.017435593e-09
6.752063205e-09
6.463676134e-09
6.150938633e-09
5.8127082e-09
5.44811175e-09
5.056629836e-09
4.638186007e-09
4.193236059e-09
3.722850246e-09
3.22878014e-09
2.713500067e-09
2.180212891e-09
1.632811752e-09
1.075791913e-09
1.008806981e-08
1.008512732e-08
1.007782084e-08
1.006610602e-08
1.00504881e-08
1.003124618e-08
1.000843856e-08
9.982121216e-09
9.95241433e-09
9.919457909e-09
9.883371867e-09
9.844248201e-09
9.802152771e-09
9.757121624e-09
9.709153066e-09
9.658200025e-09
9.604163684e-09
9.54688758e-09
9.486151569e-09
9.421665786e-09
9.353064728e-09
9.279901456e-09
9.201641798e-09
9.117658413e-09
9.027224633e-09
8.929508189e-09
8.823564963e-09
8.708333328e-09
8.582629511e-09
8.445144674e-09
8.294444306e-09
8.128970547e-09
7.947048686e-09
7.746899269e-09
7.526657681e-09
7.284402913e-09
7.018197175e-09
6.726137917e-09
6.4064237e-09
6.057434983e-09
5.677830025e-09
5.266654968e-09
4.823465182e-09
4.348451645e-09
3.842563089e-09
3.307612256e-09
2.74635182e-09
2.162503329e-09
1.560723474e-09
9.464955316e-10
1.012907543e-08
1.012662561e-08
1.01205413e-08
1.01107837e-08
1.009777062e-08
1.008173041e-08
1.006270663e-08
1.004074029e-08
1.001592529e-08
9.988371235e-09
9.958169733e-09
9.925387526e-09
9.890067542e-09
9.852225178e-09
9.811840803e-09
9.768852188e-09
9.723147816e-09
9.674560382e-09
9.622859909e-09
9.567746596e-09
9.508843545e-09
9.445689263e-09
9.377729864e-09
9.30431075e-09
9.224667751e-09
9.137917671e-09
9.043048556e-09
8.938910116e-09
8.82420478e-09
8.697479891e-09
8.557121686e-09
8.401352029e-09
8.228229405e-09
8.035656053e-09
7.821393566e-09
7.583089231e-09
7.318315445e-09
7.024624868e-09
6.699624333e-09
6.341070338e-09
5.946987804e-09
5.515812058e-09
5.046551649e-09
4.538965647e-09
3.99374425e-09
3.412676813e-09
2.798786267e-09
2.156403097e-09
1.491149947e-09
8.098122086e-10
1.017523672e-08
1.017325286e-08
1.01683254e-08
1.016042305e-08
1.014988468e-08
1.013689567e-08
1.012149186e-08
1.010370701e-08
1.008361757e-08
1.006131204e-08
1.00368633e-08
1.00103225e-08
9.981719255e-09
9.951057793e-09
9.918309848e-09
9.88340725e-09
9.846235014e-09
9.806624306e-09
9.764344877e-09
9.719096908e-09
9.670502416e-09
9.618096141e-09
9.561315753e-09
9.499491047e-09
9.431832141e-09
9.357416567e-09
9.275175673e-09
9.183880479e-09
9.082127374e-09
8.968324093e-09
8.840676568e-09
8.697178039e-09
8.535602144e-09
8.353502081e-09
8.14821855e-09
7.916899491e-09
7.656535179e-09
7.364012828e-09
7.036195657e-09
6.670031839e-09
6.262697625e-09
5.811776858e-09
5.315476271e-09
4.772871561e-09
4.184172201e-09
3.550984528e-09
2.876543051e-09
2.165868825e-09
1.425804985e-09
6.648793878e-10
1.022557342e-08
1.022403385e-08
1.02202098e-08
1.021407902e-08
1.020590851e-08
1.019584732e-08
1.01839293e-08
1.017018742e-08
1.015468815e-08
1.013750707e-08
1.011870685e-08
1.009833181e-08
1.007640717e-08
1.005293513e-08
1.002788803e-08
1.000120125e-08
9.972766205e-09
9.94242288e-09
9.909951661e-09
9.875064375e-09
9.837394561e-09
9.796486813e-09
9.751784999e-09
9.702618967e-09
9.648189688e-09
9.587552768e-09
9.519600539e-09
9.443042732e-09
9.356385812e-09
9.257911308e-09
9.145653806e-09
9.017380062e-09
8.870571098e-09
8.702409456e-09
8.509774514e-09
8.289249701e-09
8.037146762e-09
7.749553289e-09
7.422410937e-09
7.051632965e-09
6.633269646e-09
6.163728461e-09
5.640053147e-09
5.060260754e-09
4.423726258e-09
3.731589824e-09
2.987144656e-09
2.196143598e-09
1.366945148e-09
5.104099142e-10
1.027915112e-08
1.027803743e-08
1.027527109e-08
1.027084008e-08
1.026494564e-08
1.025770604e-08
1.024915799e-08
1.023933913e-08
1.022831237e-08
1.021614761e-08
1.020290492e-08
1.018862975e-08
1.017335126e-08
1.015707827e-08
1.013979293e-08
1.012144387e-08
1.010193919e-08
1.008113881e-08
1.005884587e-08
1.00347971e-08
1.000865224e-08
9.979982022e-09
9.948254445e-09
9.912819189e-09
9.872889703e-09
9.827523168e-09
9.77559805e-09
9.715788963e-09
9.646538785e-09
9.566028126e-09
9.47214275e-09
9.362440144e-09
9.234116834e-09
9.083978735e-09
8.908417617e-09
8.703397978e-09
8.464461035e-09
8.186754527e-09
7.86509884e-09
7.494102246e-09
7.068339868e-09
6.582611448e-09
6.032291353e-09
5.413779765e-09
4.725053083e-09
3.966290121e-09
3.140519493e-09
2.254191924e-09
1.317540977e-09
3.445697693e-10
1.033507446e-08
1.033437003e-08
1.033261998e-08
1.032982359e-08
1.032612162e-08
1.032160633e-08
1.031632141e-08
1.031031378e-08
1.030364841e-08
1.029639575e-08
1.028862007e-08
1.028037509e-08
1.027170163e-08
1.026262342e-08
1.02531413e-08
1.02432269e-08
1.023281559e-08
1.022179889e-08
1.021001563e-08
1.019724207e-08
1.018318059e-08
1.016744664e-08
1.014955339e-08
1.012889401e-08
1.010472124e-08
1.007612382e-08
1.00419995e-08
1.000102385e-08
9.951614626e-09
9.891891487e-09
9.819631278e-09
9.732219529e-09
9.626599038e-09
9.499217586e-09
9.345977839e-09
9.162194097e-09
8.942563323e-09
8.681161236e-09
8.371477714e-09
8.00650954e-09
7.578933341e-09
7.081385787e-09
6.506879801e-09
5.849383373e-09
5.104578839e-09
4.270799257e-09
3.35009675e-09
2.349325216e-09
1.281006043e-09
1.636008252e-10
1.039248309e-08
1.039217188e-08
1.039139827e-08
1.039017367e-08
1.038858306e-08
1.038669689e-08
1.038456922e-08
1.03822601e-08
1.037984131e-08
1.037738935e-08
1.037497859e-08
1.037267744e-08
1.037054541e-08
1.036862894e-08
1.036695618e-08
1.036553113e-08
1.036432704e-08
1.036327881e-08
1.036227446e-08
1.03611452e-08
1.035965379e-08
1.035748072e-08
1.035420791e-08
1.034929937e-08
1.034207866e-08
1.03317024e-08
1.031712895e-08
1.029708151e-08
1.027000475e-08
1.02340144e-08
1.018683933e-08
1.01257558e-08
1.004751381e-08
9.948256469e-09
9.823434917e-09
9.667723001e-09
9.474939024e-09
9.237986302e-09
8.948829516e-09
8.598531163e-09
8.177381467e-09
7.675165984e-09
7.08162365e-09
6.387151467e-09
5.583805037e-09
4.666625482e-09
3.635279098e-09
2.495947083e-09
1.263245161e-09
-3.838890321e-11
1.045055007e-08
1.045061573e-08
1.045077804e-08
1.04510611e-08
1.045149851e-08
1.045214248e-08
1.045306018e-08
1.045432799e-08
1.045602846e-08
1.045824875e-08
1.046107845e-08
1.04646064e-08
1.046891706e-08
1.047408665e-08
1.048017859e-08
1.048723817e-08
1.049528657e-08
1.050431374e-08
1.051427031e-08
1.052505803e-08
1.053651831e-08
1.054841815e-08
1.056043356e-08
1.057212945e-08
1.058293581e-08
1.059211894e-08
1.059874684e-08
1.060164743e-08
1.059935831e-08
1.059006674e-08
1.057153832e-08
1.054103293e-08
1.049520647e-08
1.042999739e-08
1.034049868e-08
1.022081777e-08
1.006392994e-08
9.861535056e-09
9.60393597e-09
9.279966391e-09
8.877011509e-09
8.381186992e-09
7.777766438e-09
7.051974153e-09
6.190267399e-09
5.182218372e-09
4.022986693e-09
2.716295843e-09
1.27764106e-09
-2.624561106e-10
1.050848239e-08
1.050890758e-08
1.050996278e-08
1.051168517e-08
1.051406103e-08
1.051712745e-08
1.052096685e-08
1.052567431e-08
1.053134646e-08
1.053808496e-08
1.054599888e-08
1.055520229e-08
1.056581017e-08
1.057793462e-08
1.059168128e-08
1.060714478e-08
1.062440344e-08
1.064351307e-08
1.066449966e-08
1.068735062e-08
1.071200385e-08
1.073833449e-08
1.07661386e-08
1.079511353e-08
1.082483373e-08
1.085472108e-08
1.088400838e-08
1.091169436e-08
1.093648844e-08
1.095674273e-08
1.097036885e-08
1.097473643e-08
1.096654998e-08
1.094170067e-08
1.089508998e-08
1.0820424e-08
1.070997926e-08
1.055434512e-08
1.03421559e-08
1.005983971e-08
9.691430076e-09
9.218515628e-09
8.620450124e-09
7.87502262e-09
6.95985538e-09
5.854985551e-09
4.546847304e-09
3.033935334e-09
1.332645039e-09
-5.177119389e-10
1.056552329e-08
1.056628905e-08
1.056819015e-08
1.057127686e-08
1.057549207e-08
1.058086049e-08
1.058748125e-08
1.059546986e-08
1.060493945e-08
1.061600929e-08
1.062881144e-08
1.064348901e-08
1.066019183e-08
1.067907298e-08
1.070028598e-08
1.072398147e-08
1.075030283e-08
1.077938115e-08
1.081132909e-08
1.084623329e-08
1.08841448e-08
1.092506725e-08
1.096894197e-08
1.101562977e-08
1.10648879e-08
1.111634121e-08
1.116944585e-08
1.122344351e-08
1.127730386e-08
1.132965198e-08
1.137867698e-08
1.142201674e-08
1.14566134e-08
1.147853254e-08
1.14827385e-08
1.146281776e-08
1.141064316e-08
1.131597378e-08
1.116599197e-08
1.09447929e-08
1.06328653e-08
1.020663671e-08
9.63820351e-09
8.895459747e-09
7.942904557e-09
6.74405299e-09
5.265861029e-09
3.489710962e-09
1.424555006e-09
-8.698126027e-10
1.062095583e-08
1.062204113e-08
1.062473597e-08
1.062910345e-08
1.063504689e-08
1.06425809e-08
1.065182221e-08
1.06629078e-08
1.067596906e-08
1.069114506e-08
1.070859336e-08
1.072848892e-08
1.075101948e-08
1.077638264e-08
1.080478402e-08
1.08364352e-08
1.087155072e-08
1.091034433e-08
1.095302442e-08
1.099978809e-08
1.105081362e-08
1.110625083e-08
1.116620876e-08
1.123073996e-08
1.12998203e-08
1.137332305e-08
1.145098536e-08
1.153236493e-08
1.161678406e-08
1.170325737e-08
1.179039819e-08
1.187629697e-08
1.195836334e-08
1.203312163e-08
1.209594624e-08
1.214071998e-08
1.215939528e-08
1.214143567e-08
1.207311514e-08
1.193666109e-08
1.170925459e-08
1.13619399e-08
1.085861852e-08
1.01553222e-08
9.200186275e-09
7.934549685e-09
6.294316787e-09
4.221755939e-09
1.669347406e-09
-1.303646774e-09
1.067410749e-08
1.067548892e-08
1.067891929e-08
1.068447401e-08
1.069202065e-08
1.070156572e-08
1.071324372e-08
1.072721345e-08
1.074362558e-08
1.076264034e-08
1.07844422e-08
1.080923953e-08
1.083725963e-08
1.086874647e-08
1.090396014e-08
1.094317612e-08
1.098668384e-08
1.103478446e-08
1.108778817e-08
1.114601042e-08
1.120976697e-08
1.12793672e-08
1.135510533e-08
1.143724852e-08
1.152602124e-08
1.162158439e-08
1.172400744e-08
1.183323126e-08
1.194901863e-08
1.207088845e-08
1.219802803e-08
1.232917568e-08
1.246246288e-08
1.259520286e-08
1.272360642e-08
1.284239878e-08
1.294430178e-08
1.301933393e-08
1.305386588e-08
1.302935123e-08
1.292065846e-08
1.269391993e-08
1.230407579e-08
1.169214938e-08
1.078439455e-08
9.491662631e-09
7.717045241e-09
5.361463884e-09
2.295982516e-09
-1.487282216e-09
1.072435528e-08
1.07260068e-08
1.073010795e-08
1.073674561e-08
1.074575544e-08
1.075713756e-08
1.077104393e-08
1.07876547e-08
1.080714003e-08
1.082968179e-08
1.085549167e-08
1.088481147e-08
1.091790823e-08
1.095507242e-08
1.099661892e-08
1.104288775e-08
1.109424419e-08
1.115107843e-08
1.121380482e-08
1.128286073e-08
1.135870455e-08
1.144181262e-08
1.15326747e-08
1.163178725e-08
1.173964384e-08
1.185672135e-08
1.19834604e-08
1.212023819e-08
1.226733069e-08
1.242486023e-08
1.259272275e-08
1.277048722e-08
1.29572556e-08
1.315146812e-08
1.335063216e-08
1.355094198e-08
1.374674193e-08
1.392976298e-08
1.408802747e-08
1.420425636e-08
1.425354446e-08
1.419987907e-08
1.399119724e-08
1.355161713e-08
1.277397939e-08
1.150422895e-08
9.564497785e-09
6.721018904e-09
2.848371965e-09
-2.078589273e-09
1.07711314e-08
1.077302422e-08
1.077772456e-08
1.07853298e-08
1.079564762e-08
1.080867308e-08
1.082457466e-08
1.084355283e-08
1.086579657e-08
1.08915088e-08
1.092092762e-08
1.0954327e-08
1.099201211e-08
1.10343183e-08
1.108161342e-08
1.113430011e-08
1.119281753e-08
1.125764282e-08
1.132929264e-08
1.140832468e-08
1.149533896e-08
1.159097873e-08
1.169593082e-08
1.181092497e-08
1.193673144e-08
1.207415589e-08
1.222403047e-08
1.238719966e-08
1.256449875e-08
1.275672102e-08
1.296456886e-08
1.31885822e-08
1.342903424e-08
1.368577967e-08
1.395803436e-08
1.424405472e-08
1.454066793e-08
1.484257756e-08
1.514132583e-08
1.54237103e-08
1.566932468e-08
1.584655448e-08
1.590607121e-08
1.576861843e-08
1.530644387e-08
1.429381616e-08
1.238288862e-08
8.840454407e-09
3.111267011e-09
-6.168739336e-09
1.081392872e-08
1.081603133e-08
1.082125267e-08
1.082969939e-08
1.084115516e-08
1.085561118e-08
1.087325089e-08
1.089429321e-08
1.091894463e-08
1.094742755e-08
1.098000434e-08
1.101697862e-08
1.10586906e-08
1.110551701e-08
1.115787471e-08
1.121622441e-08
1.1281074e-08
1.135298173e-08
1.143256e-08
1.152047952e-08
1.161747401e-08
1.172434524e-08
1.184196853e-08
1.197129838e-08
1.21133738e-08
1.22693229e-08
1.244036599e-08
1.262781652e-08
1.283307838e-08
1.305763706e-08
1.330304094e-08
1.35708681e-08
1.386267126e-08
1.41798896e-08
1.452371061e-08
1.489485701e-08
1.529326008e-08
1.571755824e-08
1.616432641e-08
1.662687827e-08
1.70933789e-08
1.754376249e-08
1.794461798e-08
1.823957099e-08
1.833234729e-08
1.804006553e-08
1.70256406e-08
1.436945834e-08
8.657857098e-09
-7.997450151e-09
1.085230643e-08
1.085458474e-08
1.086024276e-08
1.086939492e-08
1.088180495e-08
1.089746106e-08
1.091655964e-08
1.093933558e-08
1.096601061e-08
1.099682428e-08
1.103206007e-08
1.107204738e-08
1.111715698e-08
1.116780184e-08
1.122444171e-08
1.128758828e-08
1.135780979e-08
1.143573591e-08
1.152206346e-08
1.161756313e-08
1.172308732e-08
1.183957927e-08
1.196808347e-08
1.210975734e-08
1.226588404e-08
1.243788664e-08
1.26273435e-08
1.283600455e-08
1.3065808e-08
1.331889637e-08
1.359763031e-08
1.390459742e-08
1.424261179e-08