/*--------------------------------*- C++ -*----------------------------------*\
| =========                 |                                                 |
| \\      /  F ield         | foam-extend: Open Source CFD                    |
|  \\    /   O peration     | Version:     4.1                                |
|   \\  /    A nd           | Web:         http://www.foam-extend.org         |
|    \\/     M anipulation  |                                                 |
\*---------------------------------------------------------------------------*/
FoamFile
{
    version     2.0;
    format      ascii;
    class       surfaceScalarField;
    location    "70000";
    object      phi;
}
// * * * * * * * * * * * * * * * * * * * * * * * * * * * * * * * * * * * * * //

dimensions      [0 3 -1 0 0 0 0];

internalField   nonuniform List<scalar> 
31542
(
1.062541988e-07
3.075801242e-09
1.006215526e-07
5.632645859e-09
9.411657659e-08
6.504975775e-09
8.73308666e-08
6.78570986e-09
8.054507734e-08
6.785789347e-09
7.401792658e-08
6.52715107e-09
6.792291653e-08
6.095010501e-09
6.235480153e-08
5.568115465e-09
5.735879121e-08
4.996010665e-09
5.294519477e-08
4.413596635e-09
4.909971473e-08
3.845480111e-09
4.578988011e-08
3.309834708e-09
4.297122915e-08
2.818651194e-09
4.059312509e-08
2.378104502e-09
3.860307917e-08
1.990046548e-09
3.694967129e-08
1.653408578e-09
3.558446967e-08
1.365202282e-09
3.44632051e-08
1.121265117e-09
3.354636611e-08
9.168394315e-10
3.279937289e-08
7.469936415e-10
3.219246763e-08
6.069057559e-10
3.170042276e-08
4.920455268e-10
3.130213916e-08
3.982844118e-10
3.098019159e-08
3.219484689e-10
3.072033875e-08
2.59853724e-10
3.051104115e-08
2.092983479e-10
3.034302313e-08
1.680185681e-10
3.020887256e-08
1.341509212e-10
3.010267215e-08
1.062006348e-10
3.001963039e-08
8.304192673e-11
2.995592254e-08
6.370805299e-11
2.990865692e-08
4.726588384e-11
2.987538365e-08
3.327357517e-11
2.985402888e-08
2.135505299e-11
2.984284694e-08
1.118211581e-11
2.98405618e-08
2.285170663e-12
2.98447732e-08
-4.211521992e-12
2.985404705e-08
-9.274059253e-12
2.986702269e-08
-1.29758608e-11
2.988218688e-08
-1.516435739e-11
2.989804443e-08
-1.585760945e-11
2.991309084e-08
-1.504640737e-11
2.992580092e-08
-1.271003163e-11
2.993464875e-08
-8.847787636e-12
2.993813617e-08
-3.487386063e-12
2.993459217e-08
3.544096131e-12
2.992265597e-08
1.193639739e-11
2.990084483e-08
2.181148734e-11
2.986770322e-08
3.314205544e-11
4.584038909e-11
2.98218633e-08
1.113829287e-07
1.022872418e-09
1.139955313e-07
3.020043186e-09
1.160865399e-07
4.413967124e-09
1.174660395e-07
5.406210081e-09
1.180926567e-07
6.159171704e-09
1.179612466e-07
6.658560482e-09
1.171646955e-07
6.891560607e-09
1.158307733e-07
6.90203662e-09
1.14085592e-07
6.741190815e-09
1.120469596e-07
6.452227955e-09
1.098197612e-07
6.072677452e-09
1.074927426e-07
5.636852224e-09
1.051375835e-07
5.173809094e-09
1.028100461e-07
4.705640725e-09
1.005515549e-07
4.248536487e-09
9.839128411e-08
3.81367807e-09
9.63483158e-08
3.408169231e-09
9.443371639e-08
3.035863147e-09
9.265242903e-08
2.698125426e-09
9.100489522e-08
2.394526182e-09
8.948837536e-08
2.12342449e-09
8.809798552e-08
1.882434473e-09
8.682748494e-08
1.66878432e-09
8.566991334e-08
1.479519573e-09
8.461800124e-08
1.311765388e-09
8.366442796e-08
1.162871174e-09
8.28020268e-08
1.030419193e-09
8.202390809e-08
9.12269059e-10
8.132354055e-08
8.065676321e-10
8.069484789e-08
7.117341613e-10
8.013213837e-08
6.264173047e-10
7.962991425e-08
5.494898488e-10
7.918309616e-08
4.800915228e-10
7.878690874e-08
4.175422639e-10
7.843678697e-08
3.613035619e-10
7.812805411e-08
3.110176095e-10
7.785732102e-08
2.665211286e-10
7.762061557e-08
2.274310587e-10
7.741412827e-08
1.935112543e-10
7.723426708e-08
1.646968304e-10
7.707748521e-08
1.409244223e-10
7.694031113e-08
1.221279899e-10
7.681935077e-08
1.082507901e-10
7.671126843e-08
9.923514987e-11
7.661274913e-08
9.50326379e-11
7.652068689e-08
9.560711522e-11
7.643179085e-08
1.008331953e-10
7.634296975e-08
1.106332359e-10
7.625121958e-08
1.248927183e-10
1.434669863e-10
7.61535933e-08
1.096493676e-07
7.035045279e-10
1.107407022e-07
1.928708279e-09
1.12208836e-07
2.945833294e-09
1.138739191e-07
3.741127238e-09
1.15646398e-07
4.386693104e-09
1.173981631e-07
4.90679573e-09
1.190035889e-07
5.286135005e-09
1.203816554e-07
5.523970168e-09
1.214874314e-07
5.635414788e-09
1.223022571e-07
5.637402324e-09
1.228286901e-07
5.546244787e-09
1.230859824e-07
5.379560499e-09
1.231040861e-07
5.155706226e-09
1.229178208e-07
4.891906883e-09
1.225631344e-07
4.603223681e-09
1.220746065e-07
4.302206688e-09
1.214839505e-07
3.998825662e-09
1.208192041e-07
3.700610047e-09
1.201044387e-07
3.412891191e-09
1.193598233e-07
3.139142118e-09
1.186018984e-07
2.881349993e-09
1.178439644e-07
2.640369217e-09
1.170965187e-07
2.416230784e-09
1.163676388e-07
2.208400055e-09
1.156633995e-07
2.016005137e-09
1.149882683e-07
1.838002531e-09
1.143454055e-07
1.673282148e-09
1.137369254e-07
1.520749245e-09
1.13164112e-07
1.379381023e-09
1.12627586e-07
1.248260331e-09
1.121274133e-07
1.126590256e-09
1.116632049e-07
1.013698402e-09
1.112342495e-07
9.090471549e-10
1.108395625e-07
8.122292448e-10
1.104779192e-07
7.229468661e-10
1.101479421e-07
6.409944713e-10
1.098482043e-07
5.662588457e-10
1.095769613e-07
4.986739382e-10
1.093322927e-07
4.381797914e-10
1.091122275e-07
3.847620273e-10
1.089146997e-07
3.384523041e-10
1.087375365e-07
2.99291263e-10
1.085784748e-07
2.673126847e-10
1.084351888e-07
2.425213506e-10
1.083052681e-07
2.249537722e-10
1.081862551e-07
2.146206173e-10
1.080756194e-07
2.114694832e-10
1.079708184e-07
2.154346983e-10
1.07869293e-07
2.264185221e-10
2.442789144e-10
1.077684814e-07
1.095674641e-07
4.660401919e-10
1.100986655e-07
1.397506195e-09
1.10825476e-07
2.219022129e-09
1.116749004e-07
2.891702153e-09
1.126341825e-07
3.427410416e-09
1.136933634e-07
3.847614348e-09
1.148198474e-07
4.159650568e-09
1.159745306e-07
4.369286584e-09
1.171213611e-07
4.48858399e-09
1.182276041e-07
4.531159018e-09
1.192650155e-07
4.508833137e-09
1.202122226e-07
4.432353384e-09
1.210556652e-07
4.312263644e-09
1.217889132e-07
4.158658887e-09
1.224115084e-07
3.980628539e-09
1.229276534e-07
3.786061483e-09
1.233448545e-07
3.581624262e-09
1.236726834e-07
3.372780781e-09
1.23921738e-07
3.163836133e-09
1.241028492e-07
2.958030525e-09
1.242265225e-07
2.757676461e-09
1.243025773e-07
2.564314257e-09
1.243399403e-07
2.378867638e-09
1.24346551e-07
2.201789248e-09
1.243293637e-07
2.033192195e-09
1.242944021e-07
1.872963803e-09
1.242468287e-07
1.720855254e-09
1.241910279e-07
1.576549768e-09
1.241306939e-07
1.439714799e-09
1.240689143e-07
1.310039767e-09
1.24008245e-07
1.187259483e-09
1.239507755e-07
1.071167928e-09
1.238981911e-07
9.616315012e-10
1.238518265e-07
8.585937507e-10
1.238127061e-07
7.620671884e-10
1.237815731e-07
6.721275228e-10
1.23758929e-07
5.889028835e-10
1.237450386e-07
5.125644701e-10
1.237399315e-07
4.432869696e-10
1.23743441e-07
3.812527152e-10
1.237552082e-07
3.266853653e-10
1.237746907e-07
2.79809122e-10
1.238011675e-07
2.408362706e-10
1.238338786e-07
2.09810755e-10
1.238717482e-07
1.870846747e-10
1.239136265e-07
1.727426517e-10
1.239582464e-07
1.668499642e-10
1.240042375e-07
1.694437272e-10
1.240501434e-07
1.805126789e-10
1.999853911e-10
1.24094437e-07
1.094425823e-07
3.534577707e-10
1.09772124e-07
1.067964142e-09
1.102688515e-07
1.722294406e-09
1.10879353e-07
2.281200278e-09
1.115663551e-07
2.740407929e-09
1.12306514e-07
3.107455134e-09
1.13078695e-07
3.387469324e-09
1.138639916e-07
3.583989955e-09
1.146485942e-07
3.703981729e-09
1.154223948e-07
3.75735889e-09
1.161768934e-07
3.754335114e-09
1.169047865e-07
3.70446104e-09
1.17600298e-07
3.616752798e-09
1.182593375e-07
3.499619982e-09
1.188794059e-07
3.36056054e-09
1.194594636e-07
3.206003996e-09
1.199997608e-07
3.041327246e-09
1.205016162e-07
2.87092547e-09
1.209671623e-07
2.698290003e-09
1.213990931e-07
2.52609977e-09
1.218004384e-07
2.356331026e-09
1.221743772e-07
2.190375372e-09
1.225240899e-07
2.029154806e-09
1.228526513e-07
1.873227692e-09
1.231629592e-07
1.722883992e-09
1.23457694e-07
1.57822878e-09
1.23739298e-07
1.439251021e-09
1.240099706e-07
1.30587698e-09
1.242716744e-07
1.178010818e-09
1.245261475e-07
1.055566568e-09
1.247749175e-07
9.384893835e-10
1.250193146e-07
8.267707111e-10
1.252604879e-07
7.204581398e-10
1.254994231e-07
6.196584987e-10
1.257369578e-07
5.245324459e-10
1.259737968e-07
4.352886207e-10
1.262105226e-07
3.521771314e-10
1.264474827e-07
2.756044243e-10
1.2668502e-07
2.057496796e-10
1.269232963e-07
1.429765754e-10
1.271623271e-07
8.765476162e-11
1.274019945e-07
4.014197604e-11
1.276416609e-07
1.170439715e-12
1.278814938e-07
-3.002160014e-11
1.281207107e-07
-5.21316229e-11
1.283588288e-07
-6.537504708e-11
1.285952171e-07
-6.953809491e-11
1.288291407e-07
-6.44797984e-11
1.290597717e-07
-5.011819399e-11
-2.642728574e-11
1.292861844e-07
1.094073655e-07
2.760917039e-10
1.096443672e-07
8.309617359e-10
1.100158427e-07
1.350818328e-09
1.10486252e-07
1.81079059e-09
1.110256922e-07
2.200967272e-09
1.116121068e-07
2.521040145e-09
1.122269475e-07
2.772628307e-09
1.128534545e-07
2.957482904e-09
1.134781114e-07
3.079325029e-09
1.140912097e-07
3.14426105e-09
1.146860645e-07
3.159480887e-09
1.152582838e-07
3.132242346e-09
1.158054166e-07
3.069620448e-09
1.163266287e-07
2.978408262e-09
1.168222915e-07
2.864897841e-09
1.172936141e-07
2.73468142e-09
1.177423692e-07
2.59257204e-09
1.181706872e-07
2.442607449e-09
1.185808886e-07
2.28808841e-09
1.189753514e-07
2.131636836e-09
1.193564093e-07
1.975272925e-09
1.197262802e-07
1.820504197e-09
1.200870179e-07
1.668416732e-09
1.204404833e-07
1.519761998e-09
1.207883307e-07
1.375036243e-09
1.211320084e-07
1.234550772e-09
1.214727674e-07
1.098491777e-09
1.218116756e-07
9.669685227e-10
1.221496326e-07
8.400536739e-10
1.22487385e-07
7.17813923e-10
1.22825546e-07
6.003282012e-10
1.23164608e-07
4.877084348e-10
1.235049537e-07
3.801123529e-10
1.238468673e-07
2.777448458e-10
1.241905397e-07
1.80859996e-10
1.245360762e-07
8.975222592e-11
1.24883781e-07
4.472355081e-12
1.252331581e-07
-7.377261503e-11
1.255843235e-07
-1.454155826e-10
1.259370351e-07
-2.09734857e-10
1.262910278e-07
-2.663377308e-10
1.266459846e-07
-3.148143781e-10
1.270018996e-07
-3.547440559e-10
1.273577499e-07
-3.858712801e-10
1.277132662e-07
-4.076474341e-10
1.280676915e-07
-4.197999972e-10
1.284202364e-07
-4.220827458e-10
1.287700497e-07
-4.142929717e-10
1.291162255e-07
-3.962938964e-10
-3.68023158e-10
1.294578214e-07
1.093884665e-07
2.176248078e-10
1.095640668e-07
6.553607603e-10
1.098438923e-07
1.070992308e-09
1.102076465e-07
1.447035872e-09
1.106353498e-07
1.773263647e-09
1.111101691e-07
2.046220753e-09
1.116173004e-07
2.265497037e-09
1.121429797e-07
2.431803831e-09
1.126751087e-07
2.547196591e-09
1.132040113e-07
2.615359005e-09
1.137224268e-07
2.641066001e-09
1.142251715e-07
2.629498182e-09
1.147088891e-07
2.585903315e-09
1.151718424e-07
2.515455234e-09
1.156136418e-07
2.423098535e-09
1.160349386e-07
2.313384613e-09
1.164371426e-07
2.190367989e-09
1.168221806e-07
2.057569288e-09
1.171922923e-07
1.917976613e-09
1.175498609e-07
1.774068128e-09
1.178972816e-07
1.627851974e-09
1.182368656e-07
1.480919843e-09
1.185707742e-07
1.33450781e-09
1.189009773e-07
1.189558487e-09
1.192292325e-07
1.046780857e-09
1.195570776e-07
9.067054476e-10
1.198858345e-07
7.69734671e-10
1.202166201e-07
6.361827635e-10
1.205503601e-07
5.063134411e-10
1.208878031e-07
3.803706214e-10
1.212295387e-07
2.585922435e-10
1.215760151e-07
1.412317139e-10
1.219275629e-07
2.856444574e-11
1.222843933e-07
-7.908572088e-11
1.226466164e-07
-1.813631559e-10
1.23014239e-07
-2.778704392e-10
1.23386899e-07
-3.681876538e-10
1.237648591e-07
-4.517328259e-10
1.24147604e-07
-5.281605474e-10
1.245348042e-07
-5.969348629e-10
1.249259885e-07
-6.575216398e-10
1.253205859e-07
-7.09411211e-10
1.257179549e-07
-7.521124636e-10
1.261172616e-07
-7.851773513e-10
1.265177654e-07
-8.081507696e-10
1.269185956e-07
-8.206298577e-10
1.273187985e-07
-8.222853662e-10
1.277173567e-07
-8.128509313e-10
1.281131969e-07
-7.921338834e-10
-7.600257297e-10
1.285051996e-07
1.093746526e-07
1.729718309e-10
1.095090714e-07
5.209415197e-10
1.097262702e-07
8.537930195e-10
1.100142867e-07
1.159019002e-09
1.103594399e-07
1.428110088e-09
1.107487639e-07
1.656896612e-09
1.111704409e-07
1.843820154e-09
1.116136025e-07
1.988642574e-09
1.120685407e-07
2.092258856e-09
1.125271141e-07
2.156786097e-09
1.129828643e-07
2.185316259e-09
1.134308801e-07
2.181482708e-09
1.138676398e-07
2.149143709e-09
1.142908844e-07
2.092210575e-09
1.146994671e-07
2.014515693e-09
1.150931665e-07
1.919685015e-09
1.154724929e-07
1.811041475e-09
1.158385089e-07
1.691553241e-09
1.161926696e-07
1.563815729e-09
1.165366833e-07
1.430054253e-09
1.168723932e-07
1.29214183e-09
1.172016832e-07
1.151629508e-09
1.175264056e-07
1.009785135e-09
1.178483278e-07
8.676360192e-10
1.181690962e-07
7.260122643e-10
1.184902137e-07
5.855878549e-10
1.188130288e-07
4.469194776e-10
1.191387282e-07
3.104830914e-10
1.194683169e-07
1.767245659e-10
1.198026818e-07
4.60053779e-11
1.201425497e-07
-8.127604331e-11
1.204884937e-07
-2.047125382e-10
1.208409367e-07
-3.238787275e-10
1.212001744e-07
-4.383235785e-10
1.215663812e-07
-5.475701322e-10
1.219396111e-07
-6.511005434e-10
1.223197916e-07
-7.483683211e-10
1.227068474e-07
-8.387887726e-10
1.231004419e-07
-9.217550199e-10
1.235001679e-07
-9.966607057e-10
1.239055253e-07
-1.062878621e-09
1.243159011e-07
-1.119786574e-09
1.247305724e-07
-1.166783191e-09
1.251486941e-07
-1.203298568e-09
1.255693363e-07
-1.228792483e-09
1.25991479e-07
-1.24277216e-09
1.264140114e-07
-1.244817492e-09
1.268357483e-07
-1.234587507e-09
1.272554426e-07
-1.211827935e-09
-1.176380427e-09
1.276717974e-07
1.093653315e-07
1.376400666e-10
1.094718157e-07
4.144570263e-10
1.096451517e-07
6.804567816e-10
1.098776513e-07
9.265192174e-10
1.101598506e-07
1.145910609e-09
1.104821241e-07
1.33462309e-09
1.108353769e-07
1.490567549e-09
1.11211149e-07
1.612870718e-09
1.116017396e-07
1.701668731e-09
1.120004464e-07
1.758079644e-09
1.124017209e-07
1.784042027e-09
1.128011645e-07
1.782039081e-09
1.131954541e-07
1.754853989e-09
1.13582257e-07
1.705407399e-09
1.139601331e-07
1.636639249e-09
1.14328413e-07
1.55140487e-09
1.14687064e-07
1.452390332e-09
1.150365601e-07
1.342057114e-09
1.153777619e-07
1.22261377e-09
1.157118093e-07
1.096006695e-09
1.160400266e-07
9.639243564e-10
1.163638428e-07
8.278130578e-10
1.166847267e-07
6.889009743e-10
1.170041357e-07
5.482267942e-10
1.173234772e-07
4.066707289e-10
1.176440774e-07
2.649875158e-10
1.179671641e-07
1.238326935e-10
1.182939181e-07
-1.627111885e-11
1.186252618e-07
-1.546193988e-10
1.189621149e-07
-2.908479988e-10
1.193052117e-07
-4.243730546e-10
1.196551781e-07
-5.546791349e-10
1.200125245e-07
-6.812253192e-10
1.20377636e-07
-8.034353189e-10
1.20750766e-07
-9.207003619e-10
1.211320436e-07
-1.032378464e-09
1.215214702e-07
-1.137795066e-09
1.219189212e-07
-1.236239924e-09
1.223241411e-07
-1.326974827e-09
1.227367388e-07
-1.409258194e-09
1.231561965e-07
-1.482335999e-09
1.235818639e-07
-1.545453564e-09
1.240129567e-07
-1.597875598e-09
1.244485585e-07
-1.638900042e-09
1.248876344e-07
-1.667867982e-09
1.253290416e-07
-1.68417893e-09
1.257715337e-07
-1.68730927e-09
1.262137719e-07
-1.676825483e-09
1.266543392e-07
-1.652395089e-09
-1.613797485e-09
1.270917564e-07
1.093586618e-07
1.089780186e-10
1.094449558e-07
3.281628629e-10
1.095860296e-07
5.393827797e-10
1.097767401e-07
7.358085986e-10
1.100105251e-07
9.121255573e-10
1.102803581e-07
1.064790217e-09
1.105793055e-07
1.191620297e-09
1.109007471e-07
1.291429377e-09
1.112385289e-07
1.363887183e-09
1.1158715e-07
1.409458694e-09
1.119419096e-07
1.429282368e-09
1.122989577e-07
1.424990835e-09
1.126552747e-07
1.398536611e-09
1.130086241e-07
1.352057561e-09
1.133574892e-07
1.287773801e-09
1.137009931e-07
1.207900668e-09
1.140388069e-07
1.114576457e-09
1.143710538e-07
1.009810109e-09
1.146982186e-07
8.954488639e-10
1.150210627e-07
7.731625288e-10
1.153405484e-07
6.444384618e-10
1.156577734e-07
5.105877888e-10
1.159739145e-07
3.727596728e-10
1.162901793e-07
2.319617848e-10
1.166077749e-07
8.907501917e-11
1.169278825e-07
-5.512011726e-11
1.172516168e-07
-1.999017555e-10
1.175799692e-07
-3.446236471e-10
1.179139789e-07
-4.886292564e-10
1.182544668e-07
-6.313360332e-10
1.186022144e-07
-7.721206931e-10
1.189578798e-07
-9.103446276e-10
1.193220039e-07
-1.045349539e-09
1.196950131e-07
-1.17644478e-09
1.200772129e-07
-1.302900426e-09
1.204687802e-07
-1.42394601e-09
1.208697564e-07
-1.538771357e-09
1.212800456e-07
-1.646529171e-09
1.216994129e-07
-1.746341936e-09
1.221274684e-07
-1.837313511e-09
1.225636695e-07
-1.918536943e-09
1.230073223e-07
-1.989106144e-09
1.234575797e-07
-2.04813286e-09
1.239134433e-07
-2.094763488e-09
1.243737704e-07
-2.128194895e-09
1.248372833e-07
-2.147691554e-09
1.253025783e-07
-2.152603963e-09
1.257681387e-07
-2.142385801e-09
1.262323527e-07
-2.116608986e-09
-2.07497699e-09
1.266935323e-07
1.093536664e-07
8.531154272e-11
1.094248811e-07
2.569481134e-10
1.095416809e-07
4.225828823e-10
1.097005133e-07
5.769760934e-10
1.098967294e-07
7.159094955e-10
1.101251566e-07
8.363629814e-10
1.103805049e-07
9.362721608e-10
1.106575987e-07
1.014335669e-09
1.109515415e-07
1.069944521e-09
1.112578685e-07
1.103131755e-09
1.115726673e-07
1.1144834e-09
1.118926419e-07
1.105015976e-09
1.122151244e-07
1.076053673e-09
1.125380579e-07
1.029123686e-09
1.128599609e-07
9.658704411e-10
1.131798782e-07
8.879830427e-10
1.134973202e-07
7.971343744e-10
1.138121946e-07
6.949356532e-10
1.14124739e-07
5.829043262e-10
1.144354554e-07
4.624460133e-10
1.147450531e-07
3.348406347e-10
1.150543895e-07
2.01251118e-10
1.153644362e-07
6.271274918e-11
1.156762184e-07
-7.982066482e-11
1.159907862e-07
-2.254930719e-10
1.163091963e-07
-3.735303736e-10
1.166324843e-07
-5.231898275e-10
1.169616361e-07
-6.737754551e-10
1.172976093e-07
-8.24602376e-10
1.176412567e-07
-9.749833142e-10
1.179933587e-07
-1.124222622e-09
1.183546098e-07
-1.271595696e-09
1.187256019e-07
-1.416341718e-09
1.191068146e-07
-1.557657549e-09
1.19498606e-07
-1.694692029e-09
1.199012035e-07
-1.826543607e-09
1.203146936e-07
-1.952261381e-09
1.207390133e-07
-2.070848822e-09
1.211739419e-07
-2.181270391e-09
1.216190903e-07
-2.282461862e-09
1.220738963e-07
-2.373342878e-09
1.225376212e-07
-2.452831046e-09
1.230093477e-07
-2.519859458e-09
1.234879806e-07
-2.573396465e-09
1.239722518e-07
-2.612466025e-09
1.244607289e-07
-2.636168716e-09
1.249518284e-07
-2.643703351e-09
1.254438305e-07
-2.634387879e-09
1.259349e-07
-2.60767837e-09
-2.563185597e-09
1.264231087e-07
1.093498373e-07
6.547420291e-11
1.094095082e-07
1.972772775e-10
1.095076153e-07
3.244757368e-10
1.096416254e-07
4.429658515e-10
1.098081704e-07
5.493644252e-10
1.100034085e-07
6.41124901e-10
1.102233066e-07
7.16374025e-10
1.10463835e-07
7.73807425e-10
1.107211137e-07
8.126658145e-10
1.109915397e-07
8.327057688e-10
1.112718875e-07
8.341355075e-10
1.115593741e-07
8.17529085e-10
1.118516883e-07
7.837391622e-10
1.12146993e-07
7.338185854e-10
1.124439105e-07
6.689526675e-10
1.127414933e-07
5.904000666e-10
1.130391864e-07
4.994411121e-10
1.133367826e-07
3.973393829e-10
1.136343742e-07
2.853126045e-10
1.139322828e-07
1.64537264e-10
1.14231067e-07
3.605621962e-11
1.145314108e-07
-9.909305674e-11
1.148341282e-07
-2.400050207e-10
1.15140124e-07
-3.858167919e-10
1.154503546e-07
-5.357240392e-10
1.157657958e-07
-6.889717618e-10
1.160874352e-07
-8.448292733e-10
1.164162402e-07
-1.00258031e-09
1.167531448e-07
-1.16150668e-09
1.170990347e-07
-1.320872965e-09
1.174547311e-07
-1.479918737e-09
1.178209777e-07
-1.63784219e-09
1.181984264e-07
-1.793790385e-09
1.185876228e-07
-1.946854024e-09
1.189889931e-07
-2.096062327e-09
1.194028296e-07
-2.240380055e-09
1.198292768e-07
-2.378708333e-09
1.202683169e-07
-2.509888814e-09
1.207197577e-07
-2.632711061e-09
1.211832194e-07
-2.745923611e-09
1.216581249e-07
-2.848248431e-09
1.221436918e-07
-2.938398164e-09
1.226389287e-07
-3.015096617e-09
1.231426341e-07
-3.077102083e-09
1.236534003e-07
-3.123232342e-09
1.24169622e-07
-3.152390676e-09
1.246895108e-07
-3.163592332e-09
1.252111132e-07
-3.155990321e-09
1.257323343e-07
-3.128899326e-09
-3.08181669e-09
1.262509656e-07
1.093468333e-07
4.864088538e-11
1.093974524e-07
1.466581372e-10
1.094808366e-07
2.410914394e-10
1.095951365e-07
3.286658313e-10
1.097378693e-07
4.066314494e-10
1.099061555e-07
4.728386461e-10
1.100969115e-07
5.256180693e-10
1.103069977e-07
5.637212347e-10
1.105333417e-07
5.863218297e-10
1.107730438e-07
5.930037807e-10
1.110234629e-07
5.837163581e-10
1.112822775e-07
5.587143355e-10
1.115475201e-07
5.184963526e-10
1.118175915e-07
4.637469468e-10
1.120912581e-07
3.952859087e-10
1.123676395e-07
3.140184974e-10
1.126461826e-07
2.20897877e-10
1.12926623e-07
1.168987835e-10
1.13209031e-07
2.904488137e-12
1.134935641e-07
-1.199960531e-10
1.137806935e-07
-2.510735191e-10
1.140710215e-07
-3.89421459e-10
1.143652652e-07
-5.342492148e-10
1.146642461e-07
-6.847981746e-10
1.149688588e-07
-8.403371762e-10
1.152800425e-07
-1.000155599e-09
1.155987632e-07
-1.163549876e-09
1.159259924e-07
-1.32980929e-09
1.16262689e-07
-1.498202877e-09
1.166097826e-07
-1.667966107e-09
1.169681534e-07
-1.838289282e-09
1.173386169e-07
-2.008305543e-09
1.177219072e-07
-2.177080604e-09
1.181186586e-07
-2.343605457e-09
1.185293874e-07
-2.506791024e-09
1.189544727e-07
-2.665465127e-09
1.193941375e-07
-2.818372887e-09
1.198484297e-07
-2.96418088e-09
1.203172039e-07
-3.101485187e-09
1.208001039e-07
-3.22882364e-09
1.212965476e-07
-3.344692307e-09
1.218057152e-07
-3.447566013e-09
1.223265411e-07
-3.535922756e-09
1.228577104e-07
-3.608271654e-09
1.233976613e-07
-3.663183568e-09
1.239445937e-07
-3.69932344e-09
1.244964845e-07
-3.715483347e-09
1.25051109e-07
-3.710614953e-09
1.256060696e-07
-3.683859838e-09
-3.634576214e-09
1.261588294e-07
1.093444241e-07
3.421681028e-11
1.093877917e-07
1.032903617e-10
1.094593426e-07
1.695403262e-10
1.095577012e-07
2.303069721e-10
1.096810098e-07
2.833227087e-10
1.09827088e-07
3.267603136e-10
1.099935654e-07
3.591406299e-10
1.101779915e-07
3.792952083e-10
1.103779341e-07
3.863793479e-10
1.10591067e-07
3.798709993e-10
1.10815242e-07
3.595414609e-10
1.110485426e-07
3.254137198e-10
1.112893198e-07
2.777190682e-10
1.115362122e-07
2.168544962e-10
1.117881401e-07
1.433578212e-10
1.120443287e-07
5.782977608e-11
1.123042926e-07
-3.906620412e-11
1.125677614e-07
-1.465701945e-10
1.128346866e-07
-2.640208895e-10
1.131053471e-07
-3.906568031e-10
1.133800773e-07
-5.258041178e-10
1.136594307e-07
-6.687753487e-10
1.139440835e-07
-8.189025674e-10
1.142348191e-07
-9.75534354e-10
1.145325085e-07
-1.138026912e-09
1.148380873e-07
-1.305734441e-09
1.151525352e-07
-1.477997612e-09
1.154768571e-07
-1.6541308e-09
1.158120639e-07
-1.8334093e-09
1.161591544e-07
-2.015056271e-09
1.165190954e-07
-2.198230135e-09
1.168928026e-07
-2.382012697e-09
1.172811202e-07
-2.565398215e-09
1.176847993e-07
-2.747284533e-09
1.181044749e-07
-2.926466522e-09
1.185406422e-07
-3.10163215e-09
1.189936316e-07
-3.27136204e-09
1.194635841e-07
-3.434133252e-09
1.199504267e-07
-3.588327691e-09
1.204538486e-07
-3.732245546e-09
1.209732803e-07
-3.864123987e-09
1.215078753e-07
-3.982161145e-09
1.220564976e-07
-4.084545207e-09
1.226177138e-07
-4.169488209e-09
1.231897936e-07
-4.235263729e-09
1.237707171e-07
-4.280247341e-09
1.24358192e-07
-4.302958396e-09
1.249496783e-07
-4.302101355e-09
1.255424232e-07
-4.276604649e-09
-4.225654984e-09
1.261335021e-07
1.093424494e-07
2.176731444e-11
1.093798915e-07
6.584804176e-11
1.094417463e-07
1.076852413e-10
1.095269721e-07
1.450809181e-10
1.09634161e-07
1.761335954e-10
1.097616505e-07
1.99270704e-10
1.099076071e-07
2.131840085e-10
1.100701119e-07
2.167904814e-10
1.102472406e-07
2.092508685e-10
1.104371328e-07
1.89978947e-10
1.106380512e-07
1.586232527e-10
1.108484268e-07
1.15038287e-10
1.110668918e-07
5.925397819e-11
1.112923351e-07
-8.588884202e-12
1.115238087e-07
-8.811593984e-11
1.117606706e-07
-1.790323418e-10
1.120024682e-07
-2.808639986e-10
1.122490204e-07
-3.931224876e-10
1.125003101e-07
-5.153108046e-10
1.12756556e-07
-6.469029868e-10
1.130181232e-07
-7.873717688e-10
1.132855384e-07
-9.361910249e-10
1.135594673e-07
-1.092831861e-09
1.138406935e-07
-1.256760979e-09
1.141300999e-07
-1.427433445e-09
1.144286488e-07
-1.604283397e-09
1.147373646e-07
-1.786713157e-09
1.150573148e-07
-1.974080747e-09
1.153895923e-07
-2.165686493e-09
1.157352953e-07
-2.360759255e-09
1.160955079e-07
-2.558442783e-09
1.164712776e-07
-2.757782512e-09
1.168635923e-07
-2.957713069e-09
1.172733551e-07
-3.157047316e-09
1.177013563e-07
-3.354467645e-09
1.181482445e-07
-3.548520199e-09
1.186144956e-07
-3.737612888e-09
1.191003806e-07
-3.920018093e-09
1.19605934e-07
-4.093880839e-09
1.201309217e-07
-4.257233068e-09
1.206748124e-07
-4.408014493e-09
1.212367516e-07
-4.544100275e-09
1.218155418e-07
-4.663335542e-09
1.224096297e-07
-4.763576367e-09
1.230171021e-07
-4.842736395e-09
1.236356922e-07
-4.898837703e-09
1.242627976e-07
-4.930064022e-09
1.248955101e-07
-4.934813959e-09
1.255306569e-07
-4.911751429e-09
-4.85985037e-09
1.261648523e-07
1.093407851e-07
1.098209085e-11
1.093732889e-07
3.334393693e-11
1.094270476e-07
5.392631167e-11
1.095012558e-07
7.087243878e-11
1.095948267e-07
8.256240442e-11
1.097065046e-07
8.759268393e-11
1.098348562e-07
8.483248417e-11
1.09978369e-07
7.327777554e-11
1.101355191e-07
5.210100538e-11
1.103048227e-07
2.067552207e-11
1.104848833e-07
-2.143715131e-11
1.106744324e-07
-7.451077157e-11
1.108723568e-07
-1.386704879e-10
1.11077693e-07
-2.139252371e-10
1.112897421e-07
-3.001651893e-10
1.11507934e-07
-3.972245309e-10
1.117319288e-07
-5.04858908e-10
1.119615874e-07
-6.227813103e-10
1.121969489e-07
-7.506725334e-10
1.12438237e-07
-8.881912428e-10
1.126858439e-07
-1.034979034e-09
1.129403164e-07
-1.190663835e-09
1.132023417e-07
-1.354857412e-09
1.134727324e-07
-1.52715176e-09
1.137524112e-07
-1.707112278e-09
1.140423962e-07
-1.894268266e-09
1.143437845e-07
-2.088101329e-09
1.146577359e-07
-2.288032065e-09
1.14985455e-07
-2.493405608e-09
1.15328172e-07
-2.703476487e-09
1.156871219e-07
-2.917393071e-09
1.160635211e-07
-3.134181956e-09
1.164585406e-07
-3.352732817e-09
1.168732776e-07
-3.571784472e-09
1.17308723e-07
-3.789913042e-09
1.17765726e-07
-4.005523108e-09
1.182449563e-07
-4.216842984e-09
1.187468637e-07
-4.421925271e-09
1.192716371e-07
-4.618653798e-09
1.198191624e-07
-4.804757977e-09
1.203889837e-07
-4.977835409e-09
1.20980267e-07
-5.135383358e-09
1.215917709e-07
-5.274839388e-09
1.222218254e-07
-5.393630973e-09
1.228683221e-07
-5.489233274e-09
1.235287176e-07
-5.559233417e-09
1.242000523e-07
-5.601398815e-09
1.248789845e-07
-5.613746368e-09
1.255618417e-07
-5.594608773e-09
-5.542693735e-09
1.262446849e-07
1.093393818e-07
1.600081415e-12
1.093676944e-07
5.031073232e-12
1.094145644e-07
7.056101044e-12
1.094793754e-07
6.061272633e-12
1.095612029e-07
7.346998913e-13
1.096591989e-07
-1.04034069e-11
1.097721883e-07
-2.815694844e-11
1.098989765e-07
-5.351025263e-11
1.100383647e-07
-8.728706025e-11
1.101891724e-07
-1.301320908e-10
1.103502796e-07
-1.825443306e-10
1.105206629e-07
-2.448941261e-10
1.106994257e-07
-3.174333685e-10
1.108858115e-07
-4.003112503e-10
1.110792337e-07
-4.935877252e-10
1.112792622e-07
-5.972532203e-10
1.114856467e-07
-7.112435659e-10
1.116983135e-07
-8.354482899e-10
1.119173629e-07
-9.697220708e-10
1.121430651e-07
-1.113893551e-09
1.123758533e-07
-1.267767311e-09
1.126163137e-07
-1.431124315e-09
1.128651768e-07
-1.603720532e-09
1.131233074e-07
-1.785282276e-09
1.133916934e-07
-1.975498124e-09
1.136714336e-07
-2.174008367e-09
1.139637247e-07
-2.380392385e-09
1.142698465e-07
-2.594154061e-09
1.145911461e-07
-2.814705581e-09
1.149290192e-07
-3.041350014e-09
1.152848885e-07
-3.273262934e-09
1.156601796e-07
-3.509473529e-09
1.160562922e-07
-3.748845678e-09
1.164745673e-07
-3.990059791e-09
1.169162506e-07
-4.231596388e-09
1.173824502e-07
-4.47172266e-09
1.178740907e-07
-4.708483388e-09
1.183918636e-07
-4.939697737e-09
1.189361737e-07
-5.162963448e-09
1.195070862e-07
-5.375669931e-09
1.20104273e-07
-5.575021705e-09
1.207269633e-07
-5.758073377e-09
1.21373901e-07
-5.921776921e-09
1.220433115e-07
-6.063041408e-09
1.227328826e-07
-6.178804512e-09
1.23439763e-07
-6.266113982e-09
1.241605801e-07
-6.322216037e-09
1.2489148e-07
-6.344646397e-09
1.256281897e-07
-6.331318676e-09
-6.280604074e-09
1.263660998e-07
1.093382842e-07
-6.684326688e-12
1.093629779e-07
-1.966269943e-11
1.094038459e-07
-3.381202308e-11
1.094604151e-07
-5.050809882e-11
1.095321276e-07
-7.097787238e-11
1.096180551e-07
-9.633098494e-11
1.09717388e-07
-1.274897951e-10
1.098292077e-07
-1.653299639e-10
1.099525549e-07
-2.106342395e-10
1.1008649e-07
-2.640672142e-10
1.102301234e-07
-3.261778956e-10
1.103826403e-07
-3.974112229e-10
1.105433256e-07
-4.781189272e-10
1.107115832e-07
-5.685691536e-10
1.108869532e-07
-6.689579394e-10
1.110691223e-07
-7.794225203e-10
1.112579318e-07
-9.000532838e-10
1.114533843e-07
-1.030900863e-09
1.116556453e-07
-1.171983104e-09
1.118650414e-07
-1.323289746e-09
1.120820582e-07
-1.484784061e-09
1.123073363e-07
-1.656402251e-09
1.125416665e-07
-1.838050577e-09
1.12785984e-07
-2.029599453e-09
1.130413604e-07
-2.230874388e-09
1.133089964e-07
-2.44164423e-09
1.135902108e-07
-2.66160701e-09
1.138864299e-07
-2.89037347e-09
1.141991722e-07
-3.127448512e-09
1.145300324e-07
-3.372210823e-09
1.148806598e-07
-3.623890919e-09
1.152527337e-07
-3.881547907e-09
1.156479332e-07
-4.144045485e-09
1.160679012e-07
-4.410028017e-09
1.165142026e-07
-4.677897844e-09
1.169882752e-07
-4.945795283e-09
1.17491375e-07
-5.211583035e-09
1.180245146e-07
-5.472836915e-09
1.185883967e-07
-5.726844973e-09
1.191833445e-07
-5.97061722e-09
1.198092314e-07
-6.200908173e-09
1.204654125e-07
-6.41425428e-09
1.211506636e-07
-6.607027853e-09
1.218631306e-07
-6.775508293e-09
1.226002965e-07
-6.91597031e-09
1.233589698e-07
-7.024787371e-09
1.241353003e-07
-7.098546761e-09
1.249248243e-07
-7.13417065e-09
1.257225411e-07
-7.129035704e-09
-7.081082339e-09
1.265230192e-07
1.093372162e-07
-1.39005875e-11
1.093587182e-07
-4.116465579e-11
1.093943172e-07
-6.941109248e-11