/*--------------------------------*- C++ -*----------------------------------*\
| =========                 |                                                 |
| \\      /  F ield         | foam-extend: Open Source CFD                    |
|  \\    /   O peration     | Version:     4.1                                |
|   \\  /    A nd           | Web:         http://www.foam-extend.org         |
|    \\/     M anipulation  |                                                 |
\*---------------------------------------------------------------------------*/
FoamFile
{
    version     2.0;
    format      ascii;
    class       volVectorField;
    location    "70000";
    object      U;
}
// * * * * * * * * * * * * * * * * * * * * * * * * * * * * * * * * * * * * * //

dimensions      [0 1 -1 0 0 0 0];

internalField   nonuniform List<vector> 
15920
(
(0.0002132431428 5.118080128e-06 0)
(0.0002058596185 1.130163762e-05 0)
(0.0001957535414 1.371595196e-05 0)
(0.0001822358134 1.419557378e-05 0)
(0.0001678424584 1.374604621e-05 0)
(0.0001542256526 1.267490451e-05 0)
(0.0001416491262 1.116669277e-05 0)
(0.0001300318739 9.445355599e-06 0)
(0.0001194483084 7.708949295e-06 0)
(0.0001100194738 6.084050761e-06 0)
(0.0001017715012 4.638803472e-06 0)
(9.464379579e-05 3.404921089e-06 0)
(8.854418389e-05 2.388738773e-06 0)
(8.337423246e-05 1.578042489e-06 0)
(7.903173879e-05 9.496931601e-07 0)
(7.541258859e-05 4.762128999e-07 0)
(7.241598138e-05 1.299334924e-07 0)
(6.994875108e-05 -1.147549076e-07 0)
(6.792719458e-05 -2.802739061e-07 0)
(6.627746412e-05 -3.854621674e-07 0)
(6.493546077e-05 -4.456780705e-07 0)
(6.384643616e-05 -4.731688297e-07 0)
(6.29643092e-05 -4.775313971e-07 0)
(6.225080209e-05 -4.661877141e-07 0)
(6.167447998e-05 -4.44772293e-07 0)
(6.120976942e-05 -4.174529527e-07 0)
(6.083603891e-05 -3.872428588e-07 0)
(6.053676094e-05 -3.562673456e-07 0)
(6.029876669e-05 -3.2596848e-07 0)
(6.011142601e-05 -2.972431615e-07 0)
(5.996618953e-05 -2.703894263e-07 0)
(5.985647534e-05 -2.451837913e-07 0)
(5.977698576e-05 -2.21480264e-07 0)
(5.972326273e-05 -1.99263577e-07 0)
(5.969140965e-05 -1.785372469e-07 0)
(5.967896096e-05 -1.594003965e-07 0)
(5.968159073e-05 -1.429158011e-07 0)
(5.969591142e-05 -1.285052301e-07 0)
(5.971885311e-05 -1.146181657e-07 0)
(5.974764899e-05 -1.006598869e-07 0)
(5.977938236e-05 -8.658367311e-08 0)
(5.981100679e-05 -7.228225292e-08 0)
(5.983947553e-05 -5.759360078e-08 0)
(5.986174447e-05 -4.240172393e-08 0)
(5.9874787e-05 -2.664069133e-08 0)
(5.987544489e-05 -1.032578544e-08 0)
(5.986064879e-05 6.710505716e-09 0)
(5.982759842e-05 2.445895118e-08 0)
(5.977330044e-05 4.29079891e-08 0)
(5.969494963e-05 6.196086487e-08 0)
(0.0002201179451 5.641761958e-06 0)
(0.0002251690298 1.293361572e-05 0)
(0.0002303466834 1.659317031e-05 0)
(0.0002340391574 1.85266006e-05 0)
(0.0002359677075 1.963755119e-05 0)
(0.0002363580317 2.004933477e-05 0)
(0.0002353896703 1.980706672e-05 0)
(0.0002332234133 1.905345936e-05 0)
(0.00023008848 1.794614668e-05 0)
(0.0002262466566 1.660729396e-05 0)
(0.0002219344155 1.513166543e-05 0)
(0.0002173449702 1.359915369e-05 0)
(0.0002126346234 1.20755905e-05 0)
(0.0002079292357 1.061083201e-05 0)
(0.0002033259962 9.239338758e-06 0)
(0.0001988951946 7.982507045e-06 0)
(0.0001946841652 6.851177513e-06 0)
(0.0001907220667 5.847950036e-06 0)
(0.00018702413 4.9693543e-06 0)
(0.0001835951293 4.207802248e-06 0)
(0.0001804322527 3.553207132e-06 0)
(0.0001775274538 2.994240167e-06 0)
(0.0001748692751 2.51926149e-06 0)
(0.0001724442644 2.116988255e-06 0)
(0.0001702380093 1.77689654e-06 0)
(0.0001682357986 1.489434419e-06 0)
(0.0001664230657 1.24614947e-06 0)
(0.0001647856961 1.039736156e-06 0)
(0.0001633102352 8.640129049e-07 0)
(0.0001619840086 7.138421823e-07 0)
(0.0001607952319 5.850414432e-07 0)
(0.0001597328459 4.743076417e-07 0)
(0.0001587862545 3.790005568e-07 0)
(0.0001579455345 2.970126245e-07 0)
(0.000157201341 2.266730195e-07 0)
(0.0001565449023 1.667735054e-07 0)
(0.0001559672722 1.163012853e-07 0)
(0.0001554613665 7.453620223e-08 0)
(0.0001550200262 4.118306496e-08 0)
(0.0001546355681 1.601477655e-08 0)
(0.0001543006545 -1.198130855e-09 0)
(0.0001540083526 -1.061628716e-08 0)
(0.0001537518612 -1.235518787e-08 0)
(0.0001535244452 -6.536167828e-09 0)
(0.00015331945 6.714978298e-09 0)
(0.0001531304488 2.724188221e-08 0)
(0.0001529510059 5.498554451e-08 0)
(0.0001527747933 8.972002639e-08 0)
(0.0001525957116 1.312038682e-07 0)
(0.0001524077672 1.791661363e-07 0)
(0.0002187787349 1.468895815e-06 0)
(0.000220037972 4.394245323e-06 0)
(0.0002226199531 7.025639332e-06 0)
(0.0002259611892 9.377748523e-06 0)
(0.0002295290887 1.147255894e-05 0)
(0.0002330916381 1.319435641e-05 0)
(0.0002364806718 1.444685644e-05 0)
(0.0002395035959 1.522567241e-05 0)
(0.0002420118804 1.557618948e-05 0)
(0.0002439371604 1.555599609e-05 0)
(0.0002452717827 1.522819356e-05 0)
(0.0002460436803 1.466105032e-05 0)
(0.000246303872 1.392251522e-05 0)
(0.000246118407 1.307382136e-05 0)
(0.0002455598104 1.216602582e-05 0)
(0.0002446999498 1.123938825e-05 0)
(0.0002436057493 1.032409183e-05 0)
(0.0002423371599 9.441437531e-06 0)
(0.000240946331 8.605276238e-06 0)
(0.0002394774574 7.82353774e-06 0)
(0.0002379671223 7.099685327e-06 0)
(0.0002364449837 6.433980567e-06 0)
(0.0002349346324 5.824520532e-06 0)
(0.0002334544574 5.268065347e-06 0)
(0.0002320184426 4.760646546e-06 0)
(0.0002306369531 4.297999475e-06 0)
(0.0002293174592 3.875885049e-06 0)
(0.000228065115 3.490309621e-06 0)
(0.0002268832209 3.137653933e-06 0)
(0.0002257735995 2.814728774e-06 0)
(0.0002247368831 2.518750342e-06 0)
(0.0002237727139 2.247306721e-06 0)
(0.0002228799378 1.998440287e-06 0)
(0.0002220568111 1.770619645e-06 0)
(0.0002213011114 1.562661752e-06 0)
(0.0002206102201 1.373705873e-06 0)
(0.0002199812379 1.203338372e-06 0)
(0.0002194110609 1.051095699e-06 0)
(0.0002188961156 9.164153652e-07 0)
(0.0002184324186 7.989355849e-07 0)
(0.0002180158606 6.984691914e-07 0)
(0.0002176422331 6.148733757e-07 0)
(0.0002173071269 5.479997233e-07 0)
(0.0002170059439 4.976791037e-07 0)
(0.0002167339343 4.638237747e-07 0)
(0.0002164862204 4.46306634e-07 0)
(0.0002162578107 4.448385658e-07 0)
(0.0002160436322 4.591335661e-07 0)
(0.0002158385753 4.888246814e-07 0)
(0.0002156375044 5.334581755e-07 0)
(0.0002187704854 1.486747297e-06 0)
(0.0002194970075 4.325544319e-06 0)
(0.0002207730415 6.729409876e-06 0)
(0.0002224146457 8.585734963e-06 0)
(0.0002242631069 9.989065466e-06 0)
(0.0002262851426 1.104274671e-05 0)
(0.0002284754563 1.179444106e-05 0)
(0.0002307774965 1.227666332e-05 0)
(0.0002331038571 1.252656553e-05 0)
(0.0002353757098 1.257926304e-05 0)
(0.0002375322824 1.246426395e-05 0)
(0.0002395262669 1.220878469e-05 0)
(0.0002413230004 1.183991144e-05 0)
(0.0002429022029 1.138374535e-05 0)
(0.0002442574339 1.086419128e-05 0)
(0.0002453933128 1.030241967e-05 0)
(0.0002463223398 9.716678035e-06 0)
(0.0002470621883 9.122150236e-06 0)
(0.0002476334926 8.530918591e-06 0)
(0.0002480580499 7.952117303e-06 0)
(0.0002483574614 7.392249248e-06 0)
(0.0002485522152 6.855586421e-06 0)
(0.0002486611433 6.34459273e-06 0)
(0.0002487011457 5.860326702e-06 0)
(0.000248687111 5.402835549e-06 0)
(0.0002486319829 4.971505653e-06 0)
(0.0002485469029 4.565325796e-06 0)
(0.0002484413739 4.183083646e-06 0)
(0.0002483234309 3.823513212e-06 0)
(0.0002481998129 3.485400017e-06 0)
(0.0002480761248 3.167650007e-06 0)
(0.0002479569788 2.869344378e-06 0)
(0.0002478461198 2.589788686e-06 0)
(0.0002477465402 2.328511042e-06 0)
(0.000247660577 2.085234244e-06 0)
(0.0002475899816 1.859859848e-06 0)
(0.0002475359822 1.652439682e-06 0)
(0.0002474993366 1.463079167e-06 0)
(0.0002474803424 1.291882761e-06 0)
(0.0002474788529 1.139084775e-06 0)
(0.0002474943266 1.005037339e-06 0)
(0.0002475258589 8.901015459e-07 0)
(0.0002475721786 7.945910587e-07 0)
(0.000247631792 7.185154165e-07 0)
(0.0002477028832 6.622828957e-07 0)
(0.0002477832226 6.260925677e-07 0)
(0.0002478703617 6.100038907e-07 0)
(0.0002479616586 6.139880447e-07 0)
(0.000248054286 6.378987588e-07 0)
(0.0002481452537 6.814628462e-07 0)
(0.0002187113113 1.03391161e-06 0)
(0.0002191165581 3.006818119e-06 0)
(0.0002199306732 4.760951886e-06 0)
(0.0002210716557 6.237861428e-06 0)
(0.0002224048505 7.44981335e-06 0)
(0.0002238478213 8.421388681e-06 0)
(0.0002253658969 9.160150232e-06 0)
(0.0002269309968 9.672963265e-06 0)
(0.0002285103709 9.979904717e-06 0)
(0.0002300762441 1.010932904e-05 0)
(0.0002316095412 1.00897032e-05 0)
(0.0002330958601 9.947281743e-06 0)
(0.000234522643 9.706555235e-06 0)
(0.0002358796918 9.390072007e-06 0)
(0.0002371601993 9.017803704e-06 0)
(0.0002383607584 8.606843752e-06 0)
(0.0002394808067 8.171457144e-06 0)
(0.0002405220874 7.723247635e-06 0)
(0.0002414881922 7.271354378e-06 0)
(0.0002423840862 6.822701092e-06 0)
(0.0002432156236 6.382301553e-06 0)
(0.0002439891191 5.953589165e-06 0)
(0.0002447110087 5.538738972e-06 0)
(0.0002453876005 5.138965357e-06 0)
(0.0002460249007 4.754791852e-06 0)
(0.0002466285054 4.386279662e-06 0)
(0.0002472035439 4.033205965e-06 0)
(0.0002477546572 3.695202655e-06 0)
(0.0002482860021 3.371865505e-06 0)
(0.0002488012706 3.062835255e-06 0)
(0.0002493037188 2.767851523e-06 0)
(0.0002497961959 2.486787448e-06 0)
(0.0002502811734 2.219670206e-06 0)
(0.0002507607762 1.966684395e-06 0)
(0.0002512368199 1.728154896e-06 0)
(0.0002517108325 1.504540864e-06 0)
(0.0002521840984 1.296363396e-06 0)
(0.000252657582 1.104411036e-06 0)
(0.000253131944 9.29386344e-07 0)
(0.0002536076584 7.720063426e-07 0)
(0.0002540849384 6.330316273e-07 0)
(0.0002545637135 5.132345851e-07 0)
(0.0002550433077 4.133547828e-07 0)
(0.0002555229222 3.343307083e-07 0)
(0.0002560021321 2.76505934e-07 0)
(0.0002564797576 2.402958516e-07 0)
(0.0002569545888 2.260706868e-07 0)
(0.0002574252681 2.340761539e-07 0)
(0.0002578902388 2.644214602e-07 0)
(0.0002583477401 3.170738535e-07 0)
(0.000218695725 7.908709995e-07 0)
(0.0002189821804 2.340289177e-06 0)
(0.0002195757098 3.781853664e-06 0)
(0.0002204369601 5.051231952e-06 0)
(0.0002214735083 6.121683756e-06 0)
(0.0002226152336 6.991210624e-06 0)
(0.0002238239878 7.663721702e-06 0)
(0.000225071863 8.146216774e-06 0)
(0.0002263303242 8.45265474e-06 0)
(0.000227574191 8.602932256e-06 0)
(0.0002287860678 8.618851301e-06 0)
(0.000229955472 8.521840122e-06 0)
(0.0002310762607 8.332509686e-06 0)
(0.0002321453433 8.070322862e-06 0)
(0.0002331622865 7.752947161e-06 0)
(0.0002341288043 7.395758797e-06 0)
(0.0002350480622 7.011707017e-06 0)
(0.0002359241004 6.611409062e-06 0)
(0.0002367614563 6.203333614e-06 0)
(0.0002375648956 5.794029157e-06 0)
(0.0002383391894 5.388387978e-06 0)
(0.0002390889362 4.989925622e-06 0)
(0.0002398184394 4.601052002e-06 0)
(0.0002405316325 4.223319486e-06 0)
(0.0002412320402 3.857642412e-06 0)
(0.000241922768 3.504485743e-06 0)
(0.0002426065116 3.164022005e-06 0)
(0.0002432855832 2.836257359e-06 0)
(0.0002439619422 2.521131692e-06 0)
(0.0002446372269 2.218595167e-06 0)
(0.0002453127878 1.928661161e-06 0)
(0.000245989722 1.651441667e-06 0)
(0.0002466688994 1.38717535e-06 0)
(0.0002473509788 1.136240203e-06 0)
(0.0002480364466 8.991509023e-07 0)
(0.0002487255678 6.765381802e-07 0)
(0.0002494187096 4.691967027e-07 0)
(0.0002501158067 2.777993913e-07 0)
(0.0002508164662 1.032648773e-07 0)
(0.0002515203809 -5.341583566e-08 0)
(0.0002522271685 -1.912802277e-07 0)
(0.0002529362447 -3.094005607e-07 0)
(0.0002536471695 -4.068625878e-07 0)
(0.000254359226 -4.82500381e-07 0)
(0.0002550709394 -5.357812515e-07 0)
(0.0002557811972 -5.661073352e-07 0)
(0.0002564885422 -5.729214358e-07 0)
(0.0002571913188 -5.557954148e-07 0)
(0.0002578877558 -5.144509458e-07 0)
(0.0002585760038 -4.48770019e-07 0)
(0.0002186871245 6.208828142e-07 0)
(0.0002189011763 1.843226489e-06 0)
(0.0002193447932 2.995487339e-06 0)
(0.0002199993181 4.027884735e-06 0)
(0.0002208077089 4.914140568e-06 0)
(0.0002217217029 5.648146199e-06 0)
(0.0002227103405 6.23154938e-06 0)
(0.0002237490555 6.668323919e-06 0)
(0.0002248131839 6.965833369e-06 0)
(0.0002258798759 7.13553381e-06 0)
(0.0002269313415 7.191453898e-06 0)
(0.0002279552583 7.148483736e-06 0)
(0.0002289435106 7.021556486e-06 0)
(0.0002298912201 6.825238758e-06 0)
(0.000230796329 6.573271874e-06 0)
(0.0002316592015 6.278144643e-06 0)
(0.0002324820525 5.950854193e-06 0)
(0.0002332683633 5.600840002e-06 0)
(0.0002340224093 5.236011772e-06 0)
(0.0002347488965 4.862831598e-06 0)
(0.0002354526715 4.486441768e-06 0)
(0.0002361384937 4.110827188e-06 0)
(0.0002368108727 3.738994376e-06 0)
(0.0002374739629 3.37315112e-06 0)
(0.0002381315041 3.014877249e-06 0)
(0.0002387867965 2.665280807e-06 0)
(0.0002394426992 2.32513651e-06 0)
(0.0002401016458 1.995001748e-06 0)
(0.0002407656725 1.67531547e-06 0)
(0.0002414364467 1.36646049e-06 0)
(0.0002421152967 1.068830197e-06 0)
(0.0002428032545 7.82878788e-07 0)
(0.0002435010719 5.091420151e-07 0)
(0.0002442093183 2.48252544e-07 0)
(0.0002449282872 9.651167227e-10 0)
(0.000245658109 -2.318598595e-07 0)
(0.0002463984558 -4.49218813e-07 0)
(0.0002471491191 -6.502288406e-07 0)
(0.0002479098543 -8.337633127e-07 0)
(0.0002486799936 -9.986201314e-07 0)
(0.0002494586156 -1.143631901e-06 0)
(0.0002502446516 -1.267669226e-06 0)
(0.000251036916 -1.369621371e-06 0)
(0.0002518339517 -1.44867643e-06 0)
(0.000252634149 -1.50366079e-06 0)
(0.0002534358885 -1.533649973e-06 0)
(0.0002542373736 -1.537891632e-06 0)
(0.0002550366307 -1.515785346e-06 0)
(0.000255831556 -1.466910278e-06 0)
(0.0002566199487 -1.39104649e-06 0)
(0.0002186807681 4.91218124e-07 0)
(0.0002188446641 1.459984066e-06 0)
(0.0002191864861 2.381450483e-06 0)
(0.0002196981015 3.221148108e-06 0)
(0.0002203424652 3.957176995e-06 0)
(0.0002210853108 4.579954019e-06 0)
(0.0002219019225 5.086291154e-06 0)
(0.0002227717509 5.476118273e-06 0)
(0.0002236749074 5.752571268e-06 0)
(0.0002245930094 5.922318607e-06 0)
(0.0002255109586 5.994671585e-06 0)
(0.0002264173791 5.980282588e-06 0)
(0.0002273040486 5.890281657e-06 0)
(0.0002281653263 5.735816178e-06 0)
(0.000228997861 5.527684385e-06 0)
(0.0002298003468 5.275990572e-06 0)
(0.0002305731707 4.989896828e-06 0)
(0.0002313180109 4.67749833e-06 0)
(0.0002320374742 4.345788836e-06 0)
(0.0002327347957 4.000683107e-06 0)
(0.0002334135874 3.647081999e-06 0)
(0.0002340776269 3.288971097e-06 0)
(0.0002347306897 2.929540287e-06 0)
(0.0002353764242 2.571311295e-06 0)
(0.0002360182636 2.216264438e-06 0)
(0.0002366593698 1.865957298e-06 0)
(0.0002373025988 1.521636547e-06 0)
(0.0002379504891 1.184320808e-06 0)
(0.0002386052436 8.54926316e-07 0)
(0.0002392687325 5.342832483e-07 0)
(0.0002399425681 2.231845563e-07 0)
(0.0002406280629 -7.754397606e-08 0)
(0.0002413262239 -3.670094959e-07 0)
(0.0002420377282 -6.442464298e-07 0)
(0.0002427630459 -9.082032512e-07 0)
(0.0002435024264 -1.157734898e-06 0)
(0.0002442558467 -1.39167179e-06 0)
(0.0002450231168 -1.60859197e-06 0)
(0.0002458038591 -1.80715846e-06 0)
(0.0002465973684 -1.986023356e-06 0)
(0.0002474026898 -2.143798911e-06 0)
(0.0002482186979 -2.279083417e-06 0)
(0.0002490440752 -2.39051388e-06 0)
(0.0002498772598 -2.476817006e-06 0)
(0.0002507164674 -2.53673219e-06 0)
(0.0002515597411 -2.569158374e-06 0)
(0.00025240495 -2.573177492e-06 0)
(0.0002532497945 -2.548054185e-06 0)
(0.0002540918346 -2.493251322e-06 0)
(0.0002549285201 -2.408451687e-06 0)
(0.0002186764653 3.904287458e-07 0)
(0.0002188063353 1.161963401e-06 0)
(0.0002190780767 1.900772077e-06 0)
(0.0002194880741 2.58170806e-06 0)
(0.0002200106356 3.186519977e-06 0)
(0.0002206211755 3.704808386e-06 0)
(0.0002213010302 4.131430182e-06 0)
(0.0002220340225 4.464596331e-06 0)
(0.0002228043857 4.705432015e-06 0)
(0.0002235973727 4.857839718e-06 0)
(0.000224400411 4.92790736e-06 0)
(0.0002252035072 4.923073348e-06 0)
(0.0002259990347 4.851462844e-06 0)
(0.0002267814202 4.721464165e-06 0)
(0.0002275469357 4.54140922e-06 0)
(0.0002282935162 4.319289465e-06 0)
(0.0002290205242 4.062533344e-06 0)
(0.0002297284736 3.777869992e-06 0)
(0.0002304187653 3.471267312e-06 0)
(0.0002310934563 3.147921291e-06 0)
(0.0002317550594 2.812281691e-06 0)
(0.0002324063703 2.468106656e-06 0)
(0.0002330503217 2.11853773e-06 0)
(0.0002336898677 1.766186196e-06 0)
(0.0002343278927 1.413221909e-06 0)
(0.0002349671498 1.061464095e-06 0)
(0.0002356101999 7.124637852e-07 0)
(0.0002362594286 3.675879933e-07 0)
(0.0002369170024 2.804367994e-08 0)
(0.0002375847664 -3.050049017e-07 0)
(0.0002382643098 -6.303895984e-07 0)
(0.0002389570198 -9.469308116e-07 0)
(0.0002396640507 -1.253410341e-06 0)
(0.0002403862912 -1.548537525e-06 0)
(0.0002411243761 -1.830947124e-06 0)
(0.00024187869 -2.099192956e-06 0)
(0.0002426493641 -2.351746994e-06 0)
(0.0002434362736 -2.586980973e-06 0)
(0.0002442390393 -2.803257448e-06 0)
(0.0002450570195 -2.998902801e-06 0)
(0.0002458893052 -3.172195214e-06 0)
(0.0002467347249 -3.321415609e-06 0)
(0.0002475918453 -3.444901876e-06 0)
(0.0002484589672 -3.541077443e-06 0)
(0.0002493341357 -3.608462538e-06 0)
(0.0002502151663 -3.645716825e-06 0)
(0.0002510996654 -3.651678647e-06 0)
(0.0002519850444 -3.625390742e-06 0)
(0.0002528685415 -3.56612702e-06 0)
(0.0002537472524 -3.473419538e-06 0)
(0.0002186733739 3.099099815e-07 0)
(0.0002187787115 9.230711347e-07 0)
(0.0002189994187 1.512460149e-06 0)
(0.0002193340933 2.059231088e-06 0)
(0.0002197642899 2.548809546e-06 0)
(0.0002202722785 2.971850968e-06 0)
(0.0002208442792 3.322899843e-06 0)
(0.0002214677737 3.599265264e-06 0)
(0.0002221301986 3.80062012e-06 0)
(0.0002228196006 3.928812643e-06 0)
(0.0002235255379 3.98749661e-06 0)
(0.0002242394144 3.981609892e-06 0)
(0.0002249544059 3.916890744e-06 0)
(0.0002256653005 3.799512126e-06 0)
(0.0002263683734 3.635798164e-06 0)
(0.0002270612625 3.431984102e-06 0)
(0.0002277428059 3.194022225e-06 0)
(0.0002284128489 2.927446847e-06 0)
(0.0002290720489 2.637295429e-06 0)
(0.0002297216964 2.328073054e-06 0)
(0.0002303635543 2.003748354e-06 0)
(0.0002309997175 1.667779045e-06 0)
(0.0002316324902 1.323153208e-06 0)
(0.0002322642818 9.724510864e-07 0)
(0.0002328975261 6.17904043e-07 0)
(0.0002335346195 2.614592183e-07 0)
(0.000234177881 -9.515588689e-08 0)
(0.0002348294513 -4.503505583e-07 0)
(0.0002354913059 -8.026680095e-07 0)
(0.0002361653202 -1.150671936e-06 0)
(0.0002368531548 -1.492905267e-06 0)
(0.0002375562213 -1.827896771e-06 0)
(0.0002382757108 -2.154138244e-06 0)
(0.0002390126001 -2.470045073e-06 0)
(0.0002397676269 -2.773942873e-06 0)
(0.000240541275 -3.064065195e-06 0)
(0.0002413337653 -3.338555998e-06 0)
(0.0002421450457 -3.595476351e-06 0)
(0.000242974786 -3.832820545e-06 0)
(0.0002438223665 -4.048538257e-06 0)
(0.0002446868593 -4.240558981e-06 0)
(0.0002455670264 -4.406823709e-06 0)
(0.0002464613254 -4.54532064e-06 0)
(0.0002473679118 -4.654120858e-06 0)
(0.0002482846425 -4.731412292e-06 0)
(0.0002492090926 -4.775539889e-06 0)
(0.0002501385758 -4.785050159e-06 0)
(0.0002510701663 -4.758730567e-06 0)
(0.0002520007276 -4.695643259e-06 0)
(0.0002529269502 -4.59515416e-06 0)
(0.0002186710533 2.441239326e-07 0)
(0.0002187580356 7.274934128e-07 0)
(0.0002189404848 1.193131898e-06 0)
(0.0002192182044 1.626693773e-06 0)
(0.0002195775188 2.016631554e-06 0)
(0.0002200053653 2.354902307e-06 0)
(0.0002204915295 2.636190501e-06 0)
(0.0002210263825 2.857304723e-06 0)
(0.0002215999706 3.016970635e-06 0)
(0.0002222026643 3.115693327e-06 0)
(0.0002228258976 3.155493267e-06 0)
(0.0002234624285 3.139544931e-06 0)
(0.0002241063161 3.071820981e-06 0)
(0.0002247528543 2.95679733e-06 0)
(0.0002253985171 2.799214723e-06 0)
(0.0002260408872 2.603878552e-06 0)
(0.0002266785489 2.375493798e-06 0)
(0.0002273109555 2.118541927e-06 0)
(0.0002279382889 1.837200008e-06 0)
(0.0002285613223 1.535298461e-06 0)
(0.0002291812971 1.216287194e-06 0)
(0.0002297998095 8.832628985e-07 0)
(0.0002304187108 5.389770772e-07 0)
(0.00023104002 1.858711995e-07 0)
(0.0002316658366 -1.738685471e-07 0)
(0.0002322982791 -5.382604054e-07 0)
(0.000232939446 -9.054796847e-07 0)
(0.0002335913734 -1.273818348e-06 0)
(0.0002342560057 -1.641594481e-06 0)
(0.0002349351678 -2.00716152e-06 0)
(0.0002356305084 -2.368875063e-06 0)
(0.0002363434941 -2.725038927e-06 0)
(0.0002370754134 -3.073871394e-06 0)
(0.0002378273484 -3.41349563e-06 0)
(0.0002386001431 -3.741931335e-06 0)
(0.0002393943861 -4.05708774e-06 0)
(0.0002402103958 -4.35676531e-06 0)
(0.0002410482007 -4.638664247e-06 0)
(0.0002419075216 -4.900400617e-06 0)
(0.0002427877535 -5.139533461e-06 0)
(0.0002436879494 -5.353592212e-06 0)
(0.0002446068102 -5.540107582e-06 0)
(0.0002455426809 -5.696652272e-06 0)
(0.0002464935496 -5.820886812e-06 0)
(0.0002474570514 -5.910605473e-06 0)
(0.0002484304823 -5.963784002e-06 0)
(0.0002494108206 -5.97862891e-06 0)
(0.0002503947556 -5.953623812e-06 0)
(0.000251378723 -5.88757085e-06 0)
(0.0002523589483 -5.779627229e-06 0)
(0.0002186692718 1.894625931e-07 0)
(0.0002187421865 5.647799138e-07 0)
(0.0002188952585 9.266146787e-07 0)
(0.0002191289374 1.263815973e-06 0)
(0.0002194327807 1.567135358e-06 0)
(0.0002197969572 1.829741374e-06 0)
(0.0002202138622 2.04673123e-06 0)
(0.0002206761415 2.214811544e-06 0)
(0.0002211759671 2.332217692e-06 0)
(0.0002217056218 2.398623371e-06 0)
(0.0002222581211 2.414943977e-06 0)
(0.0002228274294 2.383080167e-06 0)
(0.0002234084639 2.305664583e-06 0)
(0.0002239970801 2.185839796e-06 0)
(0.0002245900645 2.027068777e-06 0)
(0.0002251851015 1.832971535e-06 0)
(0.0002257807075 1.607187915e-06 0)
(0.0002263761436 1.353272083e-06 0)
(0.0002269713211 1.074605921e-06 0)
(0.0002275666813 7.743968554e-07 0)
(0.0002281631213 4.555678892e-07 0)
(0.0002287619108 1.208078298e-07 0)
(0.0002293645747 -2.27411069e-07 0)
(0.0002299728416 -5.868303647e-07 0)
(0.0002305885857 -9.553688293e-07 0)
(0.0002312137592 -1.331080642e-06 0)
(0.0002318503384 -1.712117631e-06 0)
(0.0002325002862 -2.096694309e-06 0)
(0.0002331655132 -2.483039343e-06 0)
(0.0002338478469 -2.869372336e-06 0)
(0.0002345490022 -3.253862865e-06 0)
(0.0002352705509 -3.634589927e-06 0)
(0.0002360138945 -4.009524874e-06 0)
(0.0002367802376 -4.376520491e-06 0)
(0.0002375705597 -4.733296442e-06 0)
(0.0002383855861 -5.077431334e-06 0)
(0.0002392257606 -5.406365249e-06 0)
(0.000240091217 -5.717409953e-06 0)
(0.0002409817523 -6.007766757e-06 0)
(0.0002418968009 -6.274552891e-06 0)
(0.0002428354118 -6.514834373e-06 0)
(0.0002437962298 -6.725665692e-06 0)
(0.0002447774843 -6.904137355e-06 0)
(0.0002457769834 -7.047429067e-06 0)
(0.0002467921168 -7.152865833e-06 0)
(0.0002478198683 -7.217976125e-06 0)
(0.0002488568381 -7.240550906e-06 0)
(0.0002498992757 -7.218700845e-06 0)
(0.0002509431216 -7.150909113e-06 0)
(0.0002519840591 -7.036077813e-06 0)
(0.0002186678725 1.434102163e-07 0)
(0.0002187297487 4.2754772e-07 0)
(0.0002188597328 7.012585802e-07 0)
(0.0002190586182 9.557082889e-07 0)
(0.0002193182448 1.183406808e-06 0)
(0.0002196310817 1.378584922e-06 0)
(0.000219991435 1.536851363e-06 0)
(0.0002203936961 1.655012444e-06 0)
(0.0002208317202 1.731062103e-06 0)
(0.0002212993326 1.764137239e-06 0)
(0.0002217908605 1.754381783e-06 0)
(0.0002223013177 1.70276761e-06 0)
(0.0002228264209 1.61091633e-06 0)
(0.0002233626002 1.480935652e-06 0)
(0.0002239070175 1.315273658e-06 0)
(0.0002244575604 1.116581699e-06 0)
(0.0002250128078 8.876066854e-07 0)
(0.0002255719611 6.311116987e-07 0)
(0.0002261348317 3.498016178e-07 0)
(0.0002267016805 4.621913788e-08 0)
(0.000227273154 -2.771686108e-07 0)
(0.0002278503259 -6.180615804e-07 0)
(0.0002284345439 -9.743017933e-07 0)
(0.0002290273636 -1.343855287e-06 0)
(0.0002296305121 -1.724796952e-06 0)
(0.0002302458361 -2.11528215e-06 0)
(0.0002308752522 -2.513508156e-06 0)
(0.000231520708 -2.917679912e-06 0)
(0.0002321841428 -3.325974648e-06 0)
(0.0002328674534 -3.736507332e-06 0)
(0.0002335724588 -4.147300673e-06 0)
(0.0002343008638 -4.556257449e-06 0)
(0.0002350542257 -4.961136588e-06 0)
(0.0002358339215 -5.35953489e-06 0)
(0.0002366411112 -5.748874041e-06 0)
(0.0002374766995 -6.126394146e-06 0)
(0.0002383412982 -6.489155567e-06 0)
(0.000239235188 -6.834049486e-06 0)
(0.0002401582808 -7.157817417e-06 0)
(0.000241110084 -7.457080332e-06 0)
(0.0002420896677 -7.728377209e-06 0)
(0.0002430956368 -7.968212419e-06 0)
(0.0002441261109 -8.173111612e-06 0)
(0.0002451787123 -8.339685076e-06 0)
(0.0002462505643 -8.464696495e-06 0)
(0.0002473383022 -8.545135078e-06 0)
(0.0002484380961 -8.57828891e-06 0)
(0.0002495456885 -8.561816612e-06 0)
(0.0002506564438 -8.493813949e-06 0)
(0.0002517654111 -8.372872328e-06 0)
(0.0002186667492 1.041693003e-07 0)
(0.000218719775 3.10512806e-07 0)
(0.000218831231 5.08680491e-07 0)
(0.0002190020848 6.915528557e-07 0)
(0.0002192258374 8.529850104e-07 0)
(0.0002194966265 9.880852026e-07 0)
(0.0002198101578 1.092957315e-06 0)
(0.0002201621482 1.164589618e-06 0)
(0.0002205477748 1.200881619e-06 0)
(0.0002209621063 1.200635769e-06 0)
(0.0002214005552 1.163468509e-06 0)
(0.000221859037 1.089684447e-06 0)
(0.0002223339888 9.80149667e-07 0)
(0.0002228223937 8.361673749e-07 0)
(0.0002233218053 6.59392072e-07 0)
(0.000223830363 4.516807832e-07 0)
(0.0002243467984 2.150315188e-07 0)
(0.0002248703919 -4.849514331e-08 0)
(0.0002254008441 -3.368253921e-07 0)
(0.0002259383532 -6.479565889e-07 0)
(0.000226483563 -9.79883737e-07 0)
(0.0002270373959 -1.330691113e-06 0)
(0.000227601079 -1.698555868e-06 0)
(0.0002281760846 -2.081714772e-06 0)
(0.0002287640798 -2.47844556e-06 0)
(0.0002293668822 -2.887045473e-06 0)
(0.0002299864177 -3.305800824e-06 0)
(0.0002306246804 -3.732955179e-06 0)
(0.0002312836952 -4.166677099e-06 0)
(0.0002319654809 -4.605027688e-06 0)
(0.0002326720129 -5.045930997e-06 0)
(0.0002334051835 -5.487145421e-06 0)
(0.0002341667623 -5.926237567e-06 0)
(0.0002349583548 -6.360561929e-06 0)
(0.0002357813587 -6.787246463e-06 0)
(0.0002366369159 -7.203184563e-06 0)
(0.0002375258644 -7.605035494e-06 0)
(0.0002384486883 -7.989234706e-06 0)
(0.0002394054682 -8.352014756e-06 0)
(0.0002403958327 -8.689437661e-06 0)
(0.0002414189127 -8.997438987e-06 0)
(0.0002424733024 -9.271883451e-06 0)
(0.0002435570269 -9.508631551e-06 0)
(0.000244667522 -9.703616161e-06 0)
(0.0002458016255 -9.852927084e-06 0)
(0.000246955585 -9.952900964e-06 0)
(0.0002481250815 -1.000021347e-05 0)
(0.0002493052713 -9.99196994e-06 0)
(0.0002504908459 -9.925790195e-06 0)
(0.0002516761077 -9.799883171e-06 0)
(0.0002186658277 7.043492951e-08 0)
(0.0002187116105 2.09822081e-07 0)
(0.0002188079024 3.427167574e-07 0)
(0.0002189557401 4.632930683e-07 0)
(0.0002191498593 5.664383618e-07 0)
(0.0002193856338 6.479612993e-07 0)
(0.0002196598075 7.044127243e-07 0)
(0.0002199691023 7.329935573e-07 0)
(0.0002203097295 7.315992702e-07 0)
(0.0002206777561 6.988302013e-07 0)
(0.000221069488 6.339375436e-07 0)
(0.0002214816034 5.367396815e-07 0)
(0.000221911166 4.075303801e-07 0)
(0.0002223556845 2.469960317e-07 0)
(0.0002228131016 5.610481536e-08 0)
(0.0002232818157 -1.639212899e-07 0)
(0.000223760735 -4.117042531e-07 0)
(0.0002242492236 -6.857889038e-07 0)
(0.000224747085 -9.846717309e-07 0)
(0.0002252545479 -1.306781506e-06 0)
(0.0002257722015 -1.650605317e-06 0)
(0.0002263009418 -2.014639925e-06 0)
(0.0002268419684 -2.397395438e-06 0)
(0.0002273967436 -2.79738831e-06 0)
(0.0002279669444 -3.213126352e-06 0)
(0.0002285544247 -3.643086963e-06 0)
(0.0002291611798 -4.085688985e-06 0)
(0.0002297893109 -4.539261612e-06 0)
(0.0002304409873 -5.00201207e-06 0)
(0.0002311184098 -5.47199286e-06 0)
(0.0002318237705 -5.947069729e-06 0)
(0.0002325592112 -6.424890574e-06 0)
(0.0002333267788 -6.902856614e-06 0)
(0.0002341283765 -7.378098107e-06 0)
(0.0002349657112 -7.847455904e-06 0)
(0.0002358402362 -8.30747005e-06 0)
(0.0002367530913 -8.754377405e-06 0)
(0.0002377050396 -9.184120325e-06 0)
(0.0002386964029 -9.592367971e-06 0)
(0.000239726998 -9.974551434e-06 0)
(0.0002407960749 -1.032591349e-05 0)
(0.000241902262 -1.064157328e-05 0)
(0.0002430435187 -1.091660565e-05 0)
(0.0002442171025 -1.114613406e-05 0)
(0.0002454195509 -1.132543502e-05 0)
(0.0002466466827 -1.145005083e-05 0)
(0.000247893622 -1.15159066e-05 0)
(0.0002491548453 -1.151942626e-05 0)
(0.0002504242525 -1.145764192e-05 0)
(0.0002516952603 -1.132829031e-05 0)
(0.0002186650494 4.12457051e-08 0)
(0.0002187047678 1.226554663e-07 0)
(0.0002187884021 1.988548133e-07 0)
(0.0002189169893 2.649931418e-07 0)
(0.0002190861851 3.167658633e-07 0)
(0.0002192923007 3.505062344e-07 0)
(0.0002195328692 3.63173697e-07 0)
(0.0002198053725 3.521720032e-07 0)
(0.0002201068248 3.154324699e-07 0)
(0.0002204340846 2.514431386e-07 0)
(0.0002207841892 1.592045506e-07 0)
(0.0002211544612 3.817367046e-08 0)
(0.0002215425237 -1.117967209e-07 0)
(0.0002219462969 -2.905164402e-07 0)
(0.0002223640902 -4.975473692e-07 0)
(0.0002227946372 -7.322073172e-07 0)
(0.0002232370365 -9.936592235e-07 0)
(0.0002236907933 -1.280955599e-06 0)
(0.000224155818 -1.59307249e-06 0)
(0.0002246323856 -1.928938929e-06 0)
(0.0002251211116 -2.287467509e-06 0)
(0.0002256229387 -2.667540227e-06 0)
(0.0002261391109 -3.068008818e-06 0)
(0.0002266711367 -3.487692398e-06 0)
(0.0002272207581 -3.925360795e-06 0)
(0.0002277899228 -4.379710247e-06 0)
(0.0002283807541 -4.849335341e-06 0)
(0.0002289955171 -5.332697456e-06 0)
(0.0002296365847 -5.828090656e-06 0)
(0.0002303064007 -6.333606026e-06 0)
(0.0002310074404 -6.847095403e-06 0)
(0.0002317421662 -7.366135648e-06 0)
(0.0002325129782 -7.887994842e-06 0)
(0.0002333221587 -8.40960204e-06 0)
(0.0002341718111 -8.927522334e-06 0)
(0.0002350637929 -9.437939325e-06 0)
(0.0002359996416 -9.936647584e-06 0)
(0.0002369804968 -1.041905763e-05 0)
(0.0002380070183 -1.088021574e-05 0)
(0.000239079302 -1.131484048e-05 0)
(0.0002401967988 -1.17173777e-05 0)
(0.0002413582382 -1.20820748e-05 0)
(0.0002425615615 -1.240307469e-05 0)
(0.00024380387 -1.267452851e-05 0)
(0.0002450813929 -1.289072505e-05 0)
(0.0002463894797 -1.304623302e-05 0)
(0.0002477226207 -1.313605066e-05 0)
(0.0002490745 -1.315575587e-05 0)
(0.0002504380805 -1.310164894e-05 0)
(0.0002518057197 -1.297087904e-05 0)
(0.0002186643933 1.57275861e-08 0)
(0.0002186989779 4.655653822e-08 0)
(0.0002187718592 7.3261482e-08 0)
(0.0002188840507 9.165543735e-08 0)
(0.0002190318813 9.800941348e-08 0)