/*--------------------------------*- C++ -*----------------------------------*\
| =========                 |                                                 |
| \\      /  F ield         | foam-extend: Open Source CFD                    |
|  \\    /   O peration     | Version:     4.1                                |
|   \\  /    A nd           | Web:         http://www.foam-extend.org         |
|    \\/     M anipulation  |                                                 |
\*---------------------------------------------------------------------------*/
FoamFile
{
    version     2.0;
    format      ascii;
    class       volVectorField;
    location    "70000";
    object      vorticity;
}
// * * * * * * * * * * * * * * * * * * * * * * * * * * * * * * * * * * * * * //

dimensions      [0 0 -1 0 0 0 0];

internalField   nonuniform List<vector> 
15920
(
(0 -0 -0.008256728814)
(0 -0 -0.008405626171)
(0 -0 -0.008449656092)
(0 -0 -0.008324747062)
(0 -0 -0.008114220051)
(0 -0 -0.007876157521)
(0 -0 -0.007621514653)
(0 -0 -0.007351549329)
(0 -0 -0.00707476839)
(0 -0 -0.006802076253)
(0 -0 -0.006541096577)
(0 -0 -0.006296026938)
(0 -0 -0.006069248111)
(0 -0 -0.005862045504)
(0 -0 -0.00567470044)
(0 -0 -0.005506649655)
(0 -0 -0.005356777126)
(0 -0 -0.005223671541)
(0 -0 -0.005105794173)
(0 -0 -0.005001586973)
(0 -0 -0.004909546935)
(0 -0 -0.004828274132)
(0 -0 -0.004756497158)
(0 -0 -0.004693082352)
(0 -0 -0.004637031417)
(0 -0 -0.004587473125)
(0 -0 -0.004543652451)
(0 -0 -0.004504917282)
(0 -0 -0.004470704434)
(0 -0 -0.004440519216)
(0 -0 -0.004413926945)
(0 -0 -0.004390563695)
(0 -0 -0.004370116799)
(0 -0 -0.004352302369)
(0 -0 -0.004336858434)
(0 -0 -0.00432358673)
(0 -0 -0.004312204879)
(0 -0 -0.004302438117)
(0 -0 -0.004294081452)
(0 -0 -0.00428696348)
(0 -0 -0.004280891297)
(0 -0 -0.004275662436)
(0 -0 -0.004271079721)
(0 -0 -0.004266949971)
(0 -0 -0.004263082841)
(0 -0 -0.004259284094)
(0 -0 -0.004255363476)
(0 -0 -0.004251142898)
(0 -0 -0.004246442693)
(0 -0 -0.00424108887)
(0 -0 0.0003536725989)
(0 -0 -9.781861199e-06)
(0 -0 -0.0003975036121)
(0 -0 -0.0007983979942)
(0 -0 -0.001195664251)
(0 -0 -0.001573081823)
(0 -0 -0.001921527797)
(0 -0 -0.002235957442)
(0 -0 -0.002512425576)
(0 -0 -0.002748715764)
(0 -0 -0.002945209138)
(0 -0 -0.003104399563)
(0 -0 -0.003229901805)
(0 -0 -0.003325789785)
(0 -0 -0.003396269557)
(0 -0 -0.003445451255)
(0 -0 -0.003477159283)
(0 -0 -0.003494813757)
(0 -0 -0.003501386424)
(0 -0 -0.003499403544)
(0 -0 -0.003490972283)
(0 -0 -0.003477819592)
(0 -0 -0.003461337761)
(0 -0 -0.003442632229)
(0 -0 -0.003422568098)
(0 -0 -0.00340181235)
(0 -0 -0.003380870863)
(0 -0 -0.003360120496)
(0 -0 -0.003339836434)
(0 -0 -0.003320217757)
(0 -0 -0.003301402234)
(0 -0 -0.003283475793)
(0 -0 -0.003266491416)
(0 -0 -0.003250479156)
(0 -0 -0.003235450013)
(0 -0 -0.003221384476)
(0 -0 -0.003208298876)
(0 -0 -0.003196180946)
(0 -0 -0.003185008286)
(0 -0 -0.003174754923)
(0 -0 -0.003165395342)
(0 -0 -0.003156903452)
(0 -0 -0.003149251024)
(0 -0 -0.003142407235)
(0 -0 -0.003136338494)
(0 -0 -0.003131008747)
(0 -0 -0.003126381285)
(0 -0 -0.003122415217)
(0 -0 -0.003119069345)
(0 -0 -0.003116299331)
(0 -0 0.0001735277227)
(0 -0 0.0002523590333)
(0 -0 0.0003160604173)
(0 -0 0.0003436632248)
(0 -0 0.0003295072104)
(0 -0 0.0002758152188)
(0 -0 0.0001890671799)
(0 -0 7.715166179e-05)
(0 -0 -5.204944895e-05)
(0 -0 -0.0001912809615)
(0 -0 -0.0003343309804)
(0 -0 -0.0004762678912)
(0 -0 -0.0006134482638)
(0 -0 -0.0007433715787)
(0 -0 -0.0008644895813)
(0 -0 -0.0009760107137)
(0 -0 -0.001077712261)
(0 -0 -0.001169772822)
(0 -0 -0.001252634747)
(0 -0 -0.001326898185)
(0 -0 -0.001393243104)
(0 -0 -0.001452374348)
(0 -0 -0.001504985246)
(0 -0 -0.001551734477)
(0 -0 -0.001593233681)
(0 -0 -0.001630042724)
(0 -0 -0.001662668992)
(0 -0 -0.001691569334)
(0 -0 -0.001717153434)
(0 -0 -0.001739788676)
(0 -0 -0.001759803409)
(0 -0 -0.00177749041)
(0 -0 -0.001793114483)
(0 -0 -0.001806914577)
(0 -0 -0.001819107563)
(0 -0 -0.00182988467)
(0 -0 -0.001839439454)
(0 -0 -0.001847932479)
(0 -0 -0.001855510327)
(0 -0 -0.00186231435)
(0 -0 -0.001868474996)
(0 -0 -0.001874111864)
(0 -0 -0.001879336205)
(0 -0 -0.001884251335)
(0 -0 -0.001888952976)
(0 -0 -0.001893530106)
(0 -0 -0.001898066442)
(0 -0 -0.001902637652)
(0 -0 -0.001907313372)
(0 -0 -0.001912157986)
(0 -0 0.000146655764)
(0 -0 0.0001494948438)
(0 -0 0.0001602903646)
(0 -0 0.0001792820613)
(0 -0 0.0002039100578)
(0 -0 0.0002300107264)
(0 -0 0.000253143414)
(0 -0 0.0002697550932)
(0 -0 0.0002775951844)
(0 -0 0.0002756607873)
(0 -0 0.000263982873)
(0 -0 0.0002433475911)
(0 -0 0.0002149985966)
(0 -0 0.0001803813005)
(0 -0 0.0001409590802)
(0 -0 9.809599598e-05)
(0 -0 5.299211671e-05)
(0 -0 6.657463315e-06)
(0 -0 -4.008804745e-05)
(0 -0 -8.659930908e-05)
(0 -0 -0.0001323832978)
(0 -0 -0.0001770741205)
(0 -0 -0.0002204090195)
(0 -0 -0.000262206792)
(0 -0 -0.0003023496888)
(0 -0 -0.000340768791)
(0 -0 -0.0003774322434)
(0 -0 -0.000412336159)
(0 -0 -0.0004454977147)
(0 -0 -0.0004769500024)
(0 -0 -0.0005067381055)
(0 -0 -0.0005349161734)
(0 -0 -0.0005615455449)
(0 -0 -0.0005866931622)
(0 -0 -0.0006104304499)
(0 -0 -0.000632832112)
(0 -0 -0.0006539767277)
(0 -0 -0.0006739443443)
(0 -0 -0.0006928164264)
(0 -0 -0.0007106759317)
(0 -0 -0.000727606136)
(0 -0 -0.0007436907654)
(0 -0 -0.0007590132696)
(0 -0 -0.0007736472692)
(0 -0 -0.0007876745282)
(0 -0 -0.0008011777184)
(0 -0 -0.0008142381751)
(0 -0 -0.0008269353471)
(0 -0 -0.000839346399)
(0 -0 -0.0008515457507)
(0 -0 0.0001025134503)
(0 -0 0.0001034725507)
(0 -0 0.0001047227163)
(0 -0 0.0001067752486)
(0 -0 0.0001103801528)
(0 -0 0.0001161566022)
(0 -0 0.0001243187345)
(0 -0 0.0001346065307)
(0 -0 0.0001463798025)
(0 -0 0.0001587753371)
(0 -0 0.0001708731076)
(0 -0 0.0001818371974)
(0 -0 0.0001910045503)
(0 -0 0.0001979184045)
(0 -0 0.0002023222415)
(0 -0 0.0002041315059)
(0 -0 0.0002033956501)
(0 -0 0.0002002591896)
(0 -0 0.000194927062)
(0 -0 0.0001876367657)
(0 -0 0.0001786376424)
(0 -0 0.0001681765166)
(0 -0 0.0001564884833)
(0 -0 0.0001437915878)
(0 -0 0.0001302842735)
(0 -0 0.0001161446519)
(0 -0 0.0001015309008)
(0 -0 8.6582303e-05)
(0 -0 7.142058948e-05)
(0 -0 5.615137168e-05)
(0 -0 4.086554554e-05)
(0 -0 2.564060235e-05)
(0 -0 1.054183047e-05)
(0 -0 -4.376655771e-06)
(0 -0 -1.907097967e-05)
(0 -0 -3.350651213e-05)
(0 -0 -4.765779409e-05)
(0 -0 -6.150382785e-05)
(0 -0 -7.503259408e-05)
(0 -0 -8.823942821e-05)
(0 -0 -0.0001011261324)
(0 -0 -0.0001136996356)
(0 -0 -0.0001259724154)
(0 -0 -0.0001379699003)
(0 -0 -0.0001497119957)
(0 -0 -0.0001612203732)
(0 -0 -0.0001725191027)
(0 -0 -0.0001836344356)
(0 -0 -0.0001945944545)
(0 -0 -0.0002054288243)
(0 -0 7.87627396e-05)
(0 -0 7.908220187e-05)
(0 -0 7.949116848e-05)
(0 -0 7.994250401e-05)
(0 -0 8.044229862e-05)
(0 -0 8.107331757e-05)
(0 -0 8.198628022e-05)
(0 -0 8.336215256e-05)
(0 -0 8.536162637e-05)
(0 -0 8.808227762e-05)
(0 -0 9.153669007e-05)
(0 -0 9.565349525e-05)
(0 -0 0.0001002947157)
(0 -0 0.000105280371)
(0 -0 0.0001104133043)
(0 -0 0.0001155001355)
(0 -0 0.0001203663407)
(0 -0 0.0001248651486)
(0 -0 0.0001288811617)
(0 -0 0.0001323301517)
(0 -0 0.000135156454)
(0 -0 0.0001373291081)
(0 -0 0.0001388375667)
(0 -0 0.0001396875127)
(0 -0 0.0001398970885)
(0 -0 0.0001394936678)
(0 -0 0.0001385111847)
(0 -0 0.0001369879719)
(0 -0 0.000134965038)
(0 -0 0.0001324847163)
(0 -0 0.0001295896033)
(0 -0 0.0001263216837)
(0 -0 0.0001227219926)
(0 -0 0.000118828546)
(0 -0 0.0001146781042)
(0 -0 0.000110305615)
(0 -0 0.0001057443837)
(0 -0 0.0001010209629)
(0 -0 9.61614129e-05)
(0 -0 9.118966972e-05)
(0 -0 8.612683829e-05)
(0 -0 8.099167893e-05)
(0 -0 7.58003379e-05)
(0 -0 7.055644301e-05)
(0 -0 6.526948879e-05)
(0 -0 5.994887737e-05)
(0 -0 5.460210268e-05)
(0 -0 4.923450956e-05)
(0 -0 4.384928982e-05)
(0 -0 3.844738054e-05)
(0 -0 6.190187183e-05)
(0 -0 6.211543862e-05)
(0 -0 6.24009316e-05)
(0 -0 6.274350221e-05)
(0 -0 6.312739808e-05)
(0 -0 6.353367616e-05)
(0 -0 6.394574863e-05)
(0 -0 6.435934169e-05)
(0 -0 6.478858357e-05)
(0 -0 6.526414633e-05)
(0 -0 6.582593314e-05)
(0 -0 6.651442325e-05)
(0 -0 6.736311674e-05)
(0 -0 6.83932248e-05)
(0 -0 6.961115684e-05)
(0 -0 7.100870729e-05)
(0 -0 7.256521303e-05)
(0 -0 7.425072903e-05)
(0 -0 7.602943235e-05)
(0 -0 7.786274766e-05)
(0 -0 7.971192848e-05)
(0 -0 8.154000081e-05)
(0 -0 8.331309224e-05)
(0 -0 8.500123753e-05)
(0 -0 8.657877523e-05)
(0 -0 8.802444585e-05)
(0 -0 8.93212796e-05)
(0 -0 9.045635598e-05)
(0 -0 9.142044053e-05)
(0 -0 9.220775507e-05)
(0 -0 9.28148506e-05)
(0 -0 9.324097787e-05)
(0 -0 9.348785528e-05)
(0 -0 9.356059025e-05)
(0 -0 9.346520392e-05)
(0 -0 9.32082306e-05)
(0 -0 9.279803335e-05)
(0 -0 9.224018598e-05)
(0 -0 9.154235992e-05)
(0 -0 9.071353555e-05)
(0 -0 8.976334639e-05)
(0 -0 8.870119881e-05)
(0 -0 8.753670568e-05)
(0 -0 8.628833758e-05)
(0 -0 8.496510242e-05)
(0 -0 8.357335109e-05)
(0 -0 8.211845939e-05)
(0 -0 8.060502098e-05)
(0 -0 7.90368954e-05)
(0 -0 7.741734907e-05)
(0 -0 4.899323879e-05)
(0 -0 4.91526292e-05)
(0 -0 4.936343162e-05)
(0 -0 4.961804208e-05)
(0 -0 4.9911613e-05)
(0 -0 5.023840171e-05)
(0 -0 5.059031302e-05)
(0 -0 5.095766227e-05)
(0 -0 5.133097318e-05)
(0 -0 5.170257154e-05)
(0 -0 5.206770981e-05)
(0 -0 5.242527331e-05)
(0 -0 5.277785873e-05)
(0 -0 5.313106571e-05)
(0 -0 5.349222739e-05)
(0 -0 5.386901625e-05)
(0 -0 5.426825837e-05)
(0 -0 5.469509378e-05)
(0 -0 5.515249893e-05)
(0 -0 5.564113307e-05)
(0 -0 5.615944056e-05)
(0 -0 5.670392613e-05)
(0 -0 5.726952498e-05)
(0 -0 5.785000779e-05)
(0 -0 5.843837785e-05)
(0 -0 5.902723615e-05)
(0 -0 5.960907298e-05)
(0 -0 6.017658689e-05)
(0 -0 6.072246213e-05)
(0 -0 6.124006109e-05)
(0 -0 6.172405908e-05)
(0 -0 6.216984184e-05)
(0 -0 6.257286196e-05)
(0 -0 6.293069786e-05)
(0 -0 6.324100961e-05)
(0 -0 6.350166586e-05)
(0 -0 6.371040648e-05)
(0 -0 6.386974208e-05)
(0 -0 6.398051444e-05)
(0 -0 6.404347123e-05)
(0 -0 6.405970683e-05)
(0 -0 6.40306588e-05)
(0 -0 6.395807462e-05)
(0 -0 6.384423267e-05)
(0 -0 6.369173211e-05)
(0 -0 6.350331184e-05)
(0 -0 6.328176889e-05)
(0 -0 6.302988185e-05)
(0 -0 6.275035348e-05)
(0 -0 6.244577161e-05)
(0 -0 3.895768688e-05)
(0 -0 3.907763388e-05)
(0 -0 3.923496362e-05)
(0 -0 3.942386265e-05)
(0 -0 3.964101532e-05)
(0 -0 3.988340218e-05)
(0 -0 4.014756452e-05)
(0 -0 4.04295913e-05)
(0 -0 4.072525986e-05)
(0 -0 4.103005812e-05)
(0 -0 4.133925535e-05)
(0 -0 4.164818077e-05)
(0 -0 4.195262488e-05)
(0 -0 4.224917501e-05)
(0 -0 4.253538471e-05)
(0 -0 4.280978852e-05)
(0 -0 4.307180894e-05)
(0 -0 4.332159028e-05)
(0 -0 4.355978799e-05)
(0 -0 4.378734648e-05)
(0 -0 4.40052961e-05)
(0 -0 4.421458847e-05)
(0 -0 4.441597869e-05)
(0 -0 4.460995186e-05)
(0 -0 4.479669724e-05)
(0 -0 4.497605157e-05)
(0 -0 4.514745504e-05)
(0 -0 4.531025293e-05)
(0 -0 4.546393067e-05)
(0 -0 4.560741385e-05)
(0 -0 4.574011987e-05)
(0 -0 4.586131383e-05)
(0 -0 4.597009283e-05)
(0 -0 4.606414278e-05)
(0 -0 4.614199402e-05)
(0 -0 4.620303143e-05)
(0 -0 4.624692755e-05)
(0 -0 4.627366135e-05)
(0 -0 4.628341701e-05)
(0 -0 4.627659445e-05)
(0 -0 4.625378903e-05)
(0 -0 4.621576432e-05)
(0 -0 4.616344942e-05)
(0 -0 4.609794433e-05)
(0 -0 4.602051331e-05)
(0 -0 4.593256615e-05)
(0 -0 4.583563632e-05)
(0 -0 4.573135476e-05)
(0 -0 4.562142031e-05)
(0 -0 4.550757014e-05)
(0 -0 3.093276822e-05)
(0 -0 3.102974805e-05)
(0 -0 3.115583616e-05)
(0 -0 3.130612942e-05)
(0 -0 3.147783367e-05)
(0 -0 3.1668461e-05)
(0 -0 3.187537206e-05)
(0 -0 3.209580844e-05)
(0 -0 3.232698592e-05)
(0 -0 3.256607956e-05)
(0 -0 3.281019791e-05)
(0 -0 3.305642859e-05)
(0 -0 3.330192842e-05)
(0 -0 3.354400479e-05)
(0 -0 3.378017029e-05)
(0 -0 3.400818215e-05)
(0 -0 3.422607614e-05)
(0 -0 3.443219186e-05)
(0 -0 3.462518218e-05)
(0 -0 3.480400442e-05)
(0 -0 3.496789613e-05)
(0 -0 3.511633606e-05)
(0 -0 3.52490188e-05)
(0 -0 3.536572431e-05)
(0 -0 3.54663254e-05)
(0 -0 3.555091609e-05)
(0 -0 3.56198341e-05)
(0 -0 3.567330185e-05)
(0 -0 3.571190005e-05)
(0 -0 3.573604091e-05)
(0 -0 3.574540571e-05)
(0 -0 3.573968965e-05)
(0 -0 3.571904028e-05)
(0 -0 3.568374117e-05)
(0 -0 3.563415752e-05)
(0 -0 3.557075081e-05)
(0 -0 3.549408698e-05)
(0 -0 3.540484396e-05)
(0 -0 3.530380666e-05)
(0 -0 3.519185723e-05)
(0 -0 3.50699787e-05)
(0 -0 3.493925367e-05)
(0 -0 3.480085869e-05)
(0 -0 3.465605988e-05)
(0 -0 3.450620855e-05)
(0 -0 3.435273324e-05)
(0 -0 3.419712953e-05)
(0 -0 3.404094814e-05)
(0 -0 3.388577921e-05)
(0 -0 3.373323281e-05)
(0 -0 2.437247512e-05)
(0 -0 2.445570038e-05)
(0 -0 2.45632131e-05)
(0 -0 2.469060868e-05)
(0 -0 2.483539714e-05)
(0 -0 2.499539971e-05)
(0 -0 2.516840169e-05)
(0 -0 2.535214644e-05)
(0 -0 2.554434556e-05)
(0 -0 2.574264333e-05)
(0 -0 2.59446253e-05)
(0 -0 2.614789356e-05)
(0 -0 2.63501512e-05)
(0 -0 2.654925088e-05)
(0 -0 2.674320788e-05)
(0 -0 2.693019773e-05)
(0 -0 2.710855284e-05)
(0 -0 2.727676161e-05)
(0 -0 2.743347069e-05)
(0 -0 2.75774824e-05)
(0 -0 2.770777226e-05)
(0 -0 2.782338166e-05)
(0 -0 2.792351657e-05)
(0 -0 2.800766368e-05)
(0 -0 2.807551811e-05)
(0 -0 2.812692724e-05)
(0 -0 2.816190167e-05)
(0 -0 2.818043147e-05)
(0 -0 2.818227382e-05)
(0 -0 2.816745248e-05)
(0 -0 2.813611626e-05)
(0 -0 2.808849924e-05)
(0 -0 2.802491005e-05)
(0 -0 2.794575006e-05)
(0 -0 2.785153964e-05)
(0 -0 2.774292674e-05)
(0 -0 2.762068203e-05)
(0 -0 2.748569076e-05)
(0 -0 2.73389427e-05)
(0 -0 2.718152125e-05)
(0 -0 2.701459838e-05)
(0 -0 2.683942861e-05)
(0 -0 2.665734189e-05)
(0 -0 2.646973851e-05)
(0 -0 2.627808386e-05)
(0 -0 2.608390065e-05)
(0 -0 2.588875888e-05)
(0 -0 2.569426307e-05)
(0 -0 2.550203518e-05)
(0 -0 2.531369439e-05)
(0 -0 1.891967807e-05)
(0 -0 1.899453998e-05)
(0 -0 1.909094187e-05)
(0 -0 1.920474111e-05)
(0 -0 1.933361543e-05)
(0 -0 1.947556838e-05)
(0 -0 1.962864352e-05)
(0 -0 1.979088764e-05)
(0 -0 1.996030353e-05)
(0 -0 2.013479103e-05)
(0 -0 2.031216293e-05)
(0 -0 2.049023128e-05)
(0 -0 2.066689479e-05)
(0 -0 2.084018618e-05)
(0 -0 2.100828476e-05)
(0 -0 2.116951346e-05)
(0 -0 2.13223341e-05)
(0 -0 2.146533811e-05)
(0 -0 2.159726477e-05)
(0 -0 2.171688355e-05)
(0 -0 2.182313612e-05)
(0 -0 2.191519946e-05)
(0 -0 2.199238294e-05)
(0 -0 2.205418416e-05)
(0 -0 2.210023209e-05)
(0 -0 2.213014096e-05)
(0 -0 2.21435333e-05)
(0 -0 2.21402653e-05)
(0 -0 2.212030727e-05)
(0 -0 2.208369984e-05)
(0 -0 2.203055366e-05)
(0 -0 2.196105681e-05)
(0 -0 2.187548966e-05)
(0 -0 2.177424906e-05)
(0 -0 2.165786626e-05)
(0 -0 2.15270109e-05)
(0 -0 2.138248594e-05)
(0 -0 2.122521779e-05)
(0 -0 2.105624407e-05)
(0 -0 2.087670131e-05)
(0 -0 2.068781518e-05)
(0 -0 2.049089272e-05)
(0 -0 2.028731582e-05)
(0 -0 2.007853562e-05)
(0 -0 1.986606617e-05)
(0 -0 1.965147518e-05)
(0 -0 1.943637111e-05)
(0 -0 1.922238696e-05)
(0 -0 1.901116151e-05)
(0 -0 1.880431898e-05)
(0 -0 1.43244008e-05)
(0 -0 1.439443822e-05)
(0 -0 1.448456395e-05)
(0 -0 1.4590759e-05)
(0 -0 1.471078177e-05)
(0 -0 1.484272684e-05)
(0 -0 1.498477496e-05)
(0 -0 1.513513541e-05)
(0 -0 1.529196595e-05)
(0 -0 1.545330207e-05)
(0 -0 1.561707697e-05)
(0 -0 1.578121174e-05)
(0 -0 1.59437016e-05)
(0 -0 1.610266124e-05)
(0 -0 1.62563354e-05)
(0 -0 1.640309624e-05)
(0 -0 1.654143174e-05)
(0 -0 1.666990707e-05)
(0 -0 1.678722525e-05)
(0 -0 1.689230577e-05)
(0 -0 1.698414811e-05)
(0 -0 1.706196911e-05)
(0 -0 1.71250718e-05)
(0 -0 1.717275991e-05)
(0 -0 1.720444664e-05)
(0 -0 1.721976034e-05)
(0 -0 1.72184702e-05)
(0 -0 1.720045401e-05)
(0 -0 1.716567582e-05)
(0 -0 1.711416899e-05)
(0 -0 1.704603308e-05)
(0 -0 1.696145021e-05)
(0 -0 1.686070784e-05)
(0 -0 1.674421951e-05)
(0 -0 1.661253942e-05)
(0 -0 1.646636677e-05)
(0 -0 1.630654052e-05)
(0 -0 1.613402795e-05)
(0 -0 1.594991051e-05)
(0 -0 1.575537018e-05)
(0 -0 1.555167858e-05)
(0 -0 1.534018924e-05)
(0 -0 1.512233177e-05)
(0 -0 1.489960618e-05)
(0 -0 1.467357555e-05)
(0 -0 1.444585473e-05)
(0 -0 1.421809438e-05)
(0 -0 1.399196193e-05)
(0 -0 1.37691211e-05)
(0 -0 1.355121146e-05)
(0 -0 1.040795e-05)
(0 -0 1.047554382e-05)
(0 -0 1.056261019e-05)
(0 -0 1.066517428e-05)
(0 -0 1.078101831e-05)
(0 -0 1.090826638e-05)
(0 -0 1.10451598e-05)
(0 -0 1.118998442e-05)
(0 -0 1.134096836e-05)
(0 -0 1.149620334e-05)
(0 -0 1.165366676e-05)
(0 -0 1.181131474e-05)
(0 -0 1.196716955e-05)
(0 -0 1.211937324e-05)
(0 -0 1.22661541e-05)
(0 -0 1.24058807e-05)
(0 -0 1.253705786e-05)
(0 -0 1.265832672e-05)
(0 -0 1.276839808e-05)
(0 -0 1.286619488e-05)
(0 -0 1.295068836e-05)
(0 -0 1.302087759e-05)
(0 -0 1.307591961e-05)
(0 -0 1.311515732e-05)
(0 -0 1.31380867e-05)
(0 -0 1.314434673e-05)
(0 -0 1.313370494e-05)
(0 -0 1.310603554e-05)
(0 -0 1.306129808e-05)
(0 -0 1.299952501e-05)
(0 -0 1.292082261e-05)
(0 -0 1.282538654e-05)
(0 -0 1.271352433e-05)
(0 -0 1.258567719e-05)
(0 -0 1.244243517e-05)
(0 -0 1.228454126e-05)
(0 -0 1.21128845e-05)
(0 -0 1.192848608e-05)
(0 -0 1.173248316e-05)
(0 -0 1.152611444e-05)
(0 -0 1.13107097e-05)
(0 -0 1.108768296e-05)
(0 -0 1.085852687e-05)
(0 -0 1.062480624e-05)
(0 -0 1.038814864e-05)
(0 -0 1.015023028e-05)
(0 -0 9.912757279e-06)
(0 -0 9.677444548e-06)
(0 -0 9.445994921e-06)
(0 -0 9.220079226e-06)
(0 -0 7.040421809e-06)
(0 -0 7.107190332e-06)
(0 -0 7.193353289e-06)
(0 -0 7.294948865e-06)
(0 -0 7.409750945e-06)
(0 -0 7.535875402e-06)
(0 -0 7.671579858e-06)
(0 -0 7.815177826e-06)
(0 -0 7.964916775e-06)
(0 -0 8.118890312e-06)
(0 -0 8.27505761e-06)
(0 -0 8.431335858e-06)
(0 -0 8.585710758e-06)
(0 -0 8.736297668e-06)
(0 -0 8.881370051e-06)
(0 -0 9.019289001e-06)
(0 -0 9.148547361e-06)
(0 -0 9.267784002e-06)
(0 -0 9.375706069e-06)
(0 -0 9.471012743e-06)
(0 -0 9.552566959e-06)
(0 -0 9.619389594e-06)
(0 -0 9.670653685e-06)
(0 -0 9.705686616e-06)
(0 -0 9.723967702e-06)
(0 -0 9.725121883e-06)
(0 -0 9.708906125e-06)
(0 -0 9.67518887e-06)
(0 -0 9.623929033e-06)
(0 -0 9.555163264e-06)
(0 -0 9.469007556e-06)
(0 -0 9.365673524e-06)
(0 -0 9.24549294e-06)
(0 -0 9.108941377e-06)
(0 -0 8.956653072e-06)
(0 -0 8.789423374e-06)
(0 -0 8.608199552e-06)
(0 -0 8.414064856e-06)
(0 -0 8.208221465e-06)
(0 -0 7.991976461e-06)
(0 -0 7.766732035e-06)
(0 -0 7.53397865e-06)
(0 -0 7.295288254e-06)
(0 -0 7.052305001e-06)
(0 -0 6.80673253e-06)
(0 -0 6.560317568e-06)
(0 -0 6.31483011e-06)
(0 -0 6.072041911e-06)
(0 -0 5.833705615e-06)
(0 -0 5.601534934e-06)
(0 -0 4.126215779e-06)
(0 -0 4.192879937e-06)
(0 -0 4.279305572e-06)
(0 -0 4.381565197e-06)
(0 -0 4.497387178e-06)
(0 -0 4.624832174e-06)
(0 -0 4.762129541e-06)
(0 -0 4.907572967e-06)
(0 -0 5.059372377e-06)
(0 -0 5.215554607e-06)
(0 -0 5.373993741e-06)
(0 -0 5.532533245e-06)
(0 -0 5.689098555e-06)
(0 -0 5.841766619e-06)
(0 -0 5.988821179e-06)
(0 -0 6.128647134e-06)
(0 -0 6.259695466e-06)
(0 -0 6.380457687e-06)
(0 -0 6.489527203e-06)
(0 -0 6.585602805e-06)
(0 -0 6.667513834e-06)
(0 -0 6.734236826e-06)
(0 -0 6.784900787e-06)
(0 -0 6.818794788e-06)
(0 -0 6.835370716e-06)
(0 -0 6.834235721e-06)
(0 -0 6.815135941e-06)
(0 -0 6.777934749e-06)
(0 -0 6.722591355e-06)
(0 -0 6.649148249e-06)
(0 -0 6.557733815e-06)
(0 -0 6.448579832e-06)
(0 -0 6.322047462e-06)
(0 -0 6.178651678e-06)
(0 -0 6.019076063e-06)
(0 -0 5.844174e-06)
(0 -0 5.654958425e-06)
(0 -0 5.45258525e-06)
(0 -0 5.238336044e-06)
(0 -0 5.013603323e-06)
(0 -0 4.779879114e-06)
(0 -0 4.538745507e-06)
(0 -0 4.291864784e-06)
(0 -0 4.040966833e-06)
(0 -0 3.787833608e-06)
(0 -0 3.53428239e-06)
(0 -0 3.282148242e-06)
(0 -0 3.033264254e-06)
(0 -0 2.789440246e-06)
(0 -0 2.552440415e-06)
(0 -0 1.580399026e-06)
(0 -0 1.649785962e-06)
(0 -0 1.739580714e-06)
(0 -0 1.84559592e-06)
(0 -0 1.965448737e-06)
(0 -0 2.097159002e-06)
(0 -0 2.238951619e-06)
(0 -0 2.389100798e-06)
(0 -0 2.545740623e-06)
(0 -0 2.706780967e-06)
(0 -0 2.869998412e-06)
(0 -0 3.033228072e-06)
(0 -0 3.194469135e-06)
(0 -0 3.351889984e-06)
(0 -0 3.503722678e-06)
(0 -0 3.648260408e-06)
(0 -0 3.783838158e-06)
(0 -0 3.908851225e-06)
(0 -0 4.021793204e-06)
(0 -0 4.121287887e-06)
(0 -0 4.206106005e-06)
(0 -0 4.275173504e-06)
(0 -0 4.327578865e-06)
(0 -0 4.362579547e-06)
(0 -0 4.379603316e-06)
(0 -0 4.378241232e-06)
(0 -0 4.358231524e-06)
(0 -0 4.319436476e-06)
(0 -0 4.261819494e-06)
(0 -0 4.185432077e-06)
(0 -0 4.090417159e-06)
(0 -0 3.977028549e-06)
(0 -0 3.845658925e-06)
(0 -0 3.696865382e-06)
(0 -0 3.531384498e-06)
(0 -0 3.350133564e-06)
(0 -0 3.154200267e-06)
(0 -0 2.944825691e-06)
(0 -0 2.723385466e-06)
(0 -0 2.491371796e-06)
(0 -0 2.250377407e-06)
(0 -0 2.002081441e-06)
(0 -0 1.748236724e-06)
(0 -0 1.490656659e-06)
(0 -0 1.231200476e-06)
(0 -0 9.717579254e-07)
(0 -0 7.142338117e-07)
(0 -0 4.605293645e-07)
(0 -0 2.125186936e-07)
(0 -0 -2.797771024e-08)
(0 -0 -6.290236291e-07)
(0 -0 -5.579974483e-07)
(0 -0 -4.657991777e-07)
(0 -0 -3.567194707e-07)
(0 -0 -2.331965451e-07)
(0 -0 -9.725244568e-08)
(0 -0 4.925586303e-08)
(0 -0 2.044364087e-07)
(0 -0 3.662140069e-07)
(0 -0 5.323899822e-07)
(0 -0 7.008573186e-07)
(0 -0 8.697389349e-07)
(0 -0 1.037318415e-06)
(0 -0 1.201816766e-06)
(0 -0 1.361252483e-06)
(0 -0 1.513499585e-06)
(0 -0 1.65647524e-06)
(0 -0 1.788304534e-06)
(0 -0 1.907377355e-06)
(0 -0 2.012313805e-06)
(0 -0 2.101906704e-06)
(0 -0 2.175090244e-06)
(0 -0 2.230941853e-06)
(0 -0 2.268699874e-06)
(0 -0 2.287777038e-06)
(0 -0 2.287758369e-06)
(0 -0 2.268383138e-06)
(0 -0 2.229517566e-06)
(0 -0 2.171129333e-06)
(0 -0 2.09327514e-06)
(0 -0 1.996107044e-06)
(0 -0 1.879895886e-06)
(0 -0 1.745062366e-06)
(0 -0 1.592204663e-06)
(0 -0 1.422114082e-06)
(0 -0 1.235776036e-06)
(0 -0 1.034358271e-06)
(0 -0 8.1919135e-07)
(0 -0 5.917466746e-07)
(0 -0 3.536152186e-07)
(0 -0 1.064883569e-07)
(0 -0 -1.47858762e-07)
(0 -0 -4.075809879e-07)
(0 -0 -6.707748976e-07)
(0 -0 -9.354910572e-07)
(0 -0 -1.199749163e-06)
(0 -0 -1.461556252e-06)
(0 -0 -1.718928393e-06)
(0 -0 -1.969918281e-06)
(0 -0 -2.212646054e-06)
(0 -0 -2.542317834e-06)
(0 -0 -2.470614143e-06)
(0 -0 -2.376818707e-06)
(0 -0 -2.265188386e-06)
(0 -0 -2.138178729e-06)
(0 -0 -1.997860704e-06)
(0 -0 -1.84617581e-06)
(0 -0 -1.68511977e-06)
(0 -0 -1.516871068e-06)
(0 -0 -1.343727537e-06)
(0 -0 -1.167889894e-06)
(0 -0 -9.913266395e-07)
(0 -0 -8.158646864e-07)
(0 -0 -6.434043492e-07)
(0 -0 -4.760449702e-07)
(0 -0 -3.16016288e-07)
(0 -0 -1.654903129e-07)
(0 -0 -2.642060935e-08)
(0 -0 9.950869246e-08)
(0 -0 2.108465059e-07)
(0 -0 3.063196669e-07)
(0 -0 3.848056163e-07)
(0 -0 4.453375363e-07)
(0 -0 4.871226879e-07)
(0 -0 5.095535443e-07)
(0 -0 5.122015668e-07)
(0 -0 4.947947921e-07)
(0 -0 4.571880771e-07)
(0 -0 3.99338385e-07)
(0 -0 3.21295866e-07)
(0 -0 2.232151793e-07)
(0 -0 1.053829417e-07)
(0 -0 -3.174883977e-08)
(0 -0 -1.875348944e-07)
(0 -0 -3.611226789e-07)
(0 -0 -5.514541866e-07)
(0 -0 -7.572808382e-07)
(0 -0 -9.771859017e-07)
(0 -0 -1.209608481e-06)
(0 -0 -1.452865014e-06)
(0 -0 -1.705167202e-06)
(0 -0 -1.964637479e-06)
(0 -0 -2.229322955e-06)
(0 -0 -2.497208288e-06)
(0 -0 -2.766229532e-06)
(0 -0 -3.034292971e-06)
(0 -0 -3.299299541e-06)
(0 -0 -3.559172394e-06)
(0 -0 -3.811887366e-06)
(0 -0 -4.05550566e-06)
(0 -0 -4.214432617e-06)
(0 -0 -4.139588208e-06)
(0 -0 -4.041551357e-06)
(0 -0 -3.924842651e-06)
(0 -0 -3.792006782e-06)
(0 -0 -3.645165007e-06)
(0 -0 -3.486285615e-06)
(0 -0 -3.317328117e-06)
(0 -0 -3.140402472e-06)
(0 -0 -2.957836169e-06)
(0 -0 -2.772086503e-06)
(0 -0 -2.585579607e-06)
(0 -0 -2.400601469e-06)
(0 -0 -2.219289236e-06)
(0 -0 -2.043682869e-06)
(0 -0 -1.875769749e-06)
(0 -0 -1.717487734e-06)
(0 -0 -1.570695183e-06)
(0 -0 -1.437133897e-06)
(0 -0 -1.318400726e-06)
(0 -0 -1.215928163e-06)
(0 -0 -1.130968702e-06)
(0 -0 -1.064580925e-06)
(0 -0 -1.017619965e-06)
(0 -0 -9.907374856e-07)
(0 -0 -9.843944479e-07)
(0 -0 -9.988858654e-07)
(0 -0 -1.034370326e-06)
(0 -0 -1.09089341e-06)
(0 -0 -1.168395501e-06)
(0 -0 -1.266699447e-06)
(0 -0 -1.385482758e-06)
(0 -0 -1.524244529e-06)
(0 -0 -1.682278619e-06)
(0 -0 -1.858661628e-06)
(0 -0 -2.052257362e-06)
(0 -0 -2.261734041e-06)
(0 -0 -2.485587874e-06)
(0 -0 -2.722167095e-06)
(0 -0 -2.969692389e-06)
(0 -0 -3.226272692e-06)
(0 -0 -3.48991866e-06)
(0 -0 -3.758557035e-06)
(0 -0 -4.030047081e-06)
(0 -0 -4.302199616e-06)
(0 -0 -4.572800922e-06)
(0 -0 -4.839642479e-06)
(0 -0 -5.10055422e-06)
(0 -0 -5.353437946e-06)
(0 -0 -5.596300317e-06)
(0 -0 -5.657598363e-06)
(0 -0 -5.579998031e-06)
(0 -0 -5.478001674e-06)
(0 -0 -5.356343237e-06)
(0 -0 -5.217662785e-06)
(0 -0 -5.064162176e-06)
(0 -0 -4.897903891e-06)
(0 -0 -4.72092802e-06)
(0 -0 -4.535383391e-06)
(0 -0 -4.343609398e-06)
(0 -0 -4.148104728e-06)
(0 -0 -3.951415696e-06)
(0 -0 -3.756021666e-06)
(0 -0 -3.564268187e-06)
(0 -0 -3.3783557e-06)
(0 -0 -3.200362463e-06)
(0 -0 -3.032270587e-06)
(0 -0 -2.875975137e-06)
(0 -0 -2.733272253e-06)
(0 -0 -2.605833707e-06)
(0 -0 -2.495177399e-06)
(0 -0 -2.402640178e-06)
(0 -0 -2.329356637e-06)
(0 -0 -2.276246202e-06)
(0 -0 -2.244011595e-06)
(0 -0 -2.23315008e-06)
(0 -0 -2.24397674e-06)
(0 -0 -2.276653467e-06)
(0 -0 -2.331213318e-06)
(0 -0 -2.407570136e-06)
(0 -0 -2.505508343e-06)
(0 -0 -2.624656117e-06)
(0 -0 -2.764452625e-06)
(0 -0 -2.924121534e-06)
(0 -0 -3.102659747e-06)
(0 -0 -3.298843396e-06)
(0 -0 -3.511246735e-06)
(0 -0 -3.73826668e-06)
(0 -0 -3.978147026e-06)
(0 -0 -4.22899887e-06)
(0 -0 -4.488816323e-06)
(0 -0 -4.755489718e-06)
(0 -0 -5.026820644e-06)
(0 -0 -5.300541551e-06)
(0 -0 -5.574339721e-06)
(0 -0 -5.84588502e-06)
(0 -0 -6.112862472e-06)
(0 -0 -6.373008935e-06)
(0 -0 -6.624151069e-06)
(0 -0 -6.864242028e-06)
(0 -0 -6.890021185e-06)
(0 -0 -6.809570817e-06)
(0 -0 -6.703500088e-06)
(0 -0 -6.576741363e-06)
(0 -0 -6.432022987e-06)
(0 -0 -6.271622168e-06)
(0 -0 -6.097692803e-06)
(0 -0 -5.912377016e-06)
(0 -0 -5.717916679e-06)
(0 -0 -5.516719677e-06)
(0 -0 -5.31133226e-06)
(0 -0 -5.104352024e-06)
(0 -0 -4.898340453e-06)
(0 -0 -4.695765089e-06)
(0 -0 -4.498973806e-06)
(0 -0 -4.310192109e-06)
(0 -0 -4.131529592e-06)
(0 -0 -3.964983923e-06)
(0 -0 -3.812435038e-06)
(0 -0 -3.675628479e-06)
(0 -0 -3.55615159e-06)
(0 -0 -3.45540757e-06)
(0 -0 -3.374592626e-06)
(0 -0 -3.314680271e-06)
(0 -0 -3.276416966e-06)
(0 -0 -3.260331394e-06)
(0 -0 -3.266756713e-06)
(0 -0 -3.295859821e-06)
(0 -0 -3.347666831e-06)
(0 -0 -3.422073265e-06)
(0 -0 -3.518833497e-06)
(0 -0 -3.637532668e-06)
(0 -0 -3.77755224e-06)
(0 -0 -3.938043086e-06)
(0 -0 -4.117915335e-06)
(0 -0 -4.31584656e-06)
(0 -0 -4.530303194e-06)
(0 -0 -4.759567103e-06)
(0 -0 -5.001760824e-06)
(0 -0 -5.254868758e-06)
(0 -0 -5.516754428e-06)
(0 -0 -5.785175598e-06)
(0 -0 -6.057800604e-06)
(0 -0 -6.332229955e-06)
(0 -0 -6.606023859e-06)
(0 -0 -6.876733267e-06)
(0 -0 -7.141935104e-06)
(0 -0 -7.399271376e-06)
(0 -0 -7.646489997e-06)
(0 -0 -7.881485676e-06)
(0 -0 -7.926488993e-06)
(0 -0 -7.843094417e-06)
(0 -0 -7.732831293e-06)
(0 -0 -7.600824285e-06)
(0 -0 -7.449889132e-06)
(0 -0 -7.282378555e-06)
(0 -0 -7.100531434e-06)
(0 -0 -6.906584392e-06)
(0 -0 -6.702876947e-06)
(0 -0 -6.49190879e-06)
(0 -0 -6.276306857e-06)
(0 -0 -6.058742693e-06)
(0 -0 -5.841858254e-06)
(0 -0 -5.628219683e-06)
(0 -0 -5.420292946e-06)
(0 -0 -5.220430984e-06)
(0 -0 -5.030866621e-06)
(0 -0 -4.853707251e-06)
(0 -0 -4.690927185e-06)
(0 -0 -4.544354058e-06)
(0 -0 -4.415648577e-06)
(0 -0 -4.306280277e-06)
(0 -0 -4.217504019e-06)
(0 -0 -4.150342476e-06)
(0 -0 -4.10557956e-06)
(0 -0 -4.08376894e-06)
(0 -0 -4.085257025e-06)
(0 -0 -4.110214004e-06)
(0 -0 -4.158660578e-06)
(0 -0 -4.230477712e-06)
(0 -0 -4.325393496e-06)
(0 -0 -4.442952092e-06)
(0 -0 -4.582477079e-06)
(0 -0 -4.74304386e-06)
(0 -0 -4.923470556e-06)
(0 -0 -5.122328521e-06)
(0 -0 -5.337966555e-06)
(0 -0 -5.568539898e-06)
(0 -0 -5.812036975e-06)
(0 -0 -6.066301569e-06)
(0 -0 -6.329051912e-06)
(0 -0 -6.597898868e-06)
(0 -0 -6.870365147e-06)
(0 -0 -7.14390908e-06)
(0 -0 -7.415954443e-06)
(0 -0 -7.683923905e-06)
(0 -0 -7.945276996e-06)
(0 -0 -8.19755007e-06)
(0 -0 -8.438399239e-06)
(0 -0 -8.665658617e-06)
(0 -0 -8.778539052e-06)
(0 -0 -8.69215634e-06)
(0 -0 -8.577652602e-06)
(0 -0 -8.440333748e-06)
(0 -0 -8.283101682e-06)
(0 -0 -8.108385838e-06)
(0 -0 -7.918507413e-06)
(0 -0 -7.715790908e-06)
(0 -0 -7.502668543e-06)
(0 -0 -7.281734891e-06)
(0 -0 -7.055709855e-06)
(0 -0 -6.827354118e-06)
(0 -0 -6.599399197e-06)
(0 -0 -6.374508264e-06)
(0 -0 -6.155255131e-06)
(0 -0 -5.944107869e-06)
(0 -0 -5.743414106e-06)
(0 -0 -5.555388541e-06)
(0 -0 -5.382101957e-06)
(0 -0 -5.225468232e-06)
(0 -0 -5.08722566e-06)
(0 -0 -4.968913416e-06)
(0 -0 -4.871846672e-06)
(0 -0 -4.797097065e-06)
(0 -0 -4.745484192e-06)
(0 -0 -4.717584058e-06)
(0 -0 -4.713753709e-06)
(0 -0 -4.734164306e-06)
(0 -0 -4.778828791e-06)
(0 -0 -4.847610396e-06)
(0 -0 -4.940206701e-06)
(0 -0 -5.056115537e-06)
(0 -0 -5.194596696e-06)
(0 -0 -5.354644118e-06)
(0 -0 -5.534977513e-06)
(0 -0 -5.734054373e-06)
(0 -0 -5.95009635e-06)
(0 -0 -6.181120651e-06)
(0 -0 -6.424968815e-06)
(0 -0 -6.679330334e-06)
(0 -0 -6.941763444e-06)
(0 -0 -7.209716437e-06)
(0 -0 -7.480551233e-06)
(0 -0 -7.75157205e-06)
(0 -0 -8.020056988e-06)
(0 -0 -8.28329619e-06)
(0 -0 -8.538624037e-06)
(0 -0 -8.783440544e-06)
(0 -0 -9.015270347e-06)
(0 -0 -9.231891932e-06)
(0 -0 -9.45545075e-06)
(0 -0 -9.366072033e-06)
(0 -0 -9.247334864e-06)
(0 -0 -9.10471095e-06)
(0 -0 -8.941185935e-06)
(0 -0 -8.759265545e-06)
(0 -0 -8.561351251e-06)
(0 -0 -8.349851699e-06)
(0 -0 -8.127288156e-06)
(0 -0 -7.896349424e-06)
(0 -0 -7.659851342e-06)
(0 -0 -7.420648758e-06)
(0 -0 -7.181565888e-06)
(0 -0 -6.945362153e-06)
(0 -0 -6.714714839e-06)
(0 -0 -6.492201592e-06)
(0 -0 -6.280280347e-06)
(0 -0 -6.081271074e-06)
(0 -0 -5.897341363e-06)
(0 -0 -5.730493009e-06)
(0 -0 -5.582544122e-06)
(0 -0 -5.455105495e-06)
(0 -0 -5.349553878e-06)
(0 -0 -5.26701007e-06)
(0 -0 -5.208329073e-06)
(0 -0 -5.174108673e-06)
(0 -0 -5.164715918e-06)
(0 -0 -5.18032157e-06)
(0 -0 -5.220927812e-06)
(0 -0 -5.286375349e-06)
(0 -0 -5.376325297e-06)
(0 -0 -5.490222661e-06)
(0 -0 -5.627256461e-06)
(0 -0 -5.786331704e-06)
(0 -0 -5.966061809e-06)
(0 -0 -6.164781721e-06)
(0 -0 -6.380575434e-06)
(0 -0 -6.61130908e-06)
(0 -0 -6.85466197e-06)
(0 -0 -7.108152459e-06)
(0 -0 -7.369160809e-06)
(0 -0 -7.634953745e-06)
(0 -0 -7.902714508e-06)
(0 -0 -8.169578883e-06)
(0 -0 -8.432669422e-06)
(0 -0 -8.689159403e-06)
(0 -0 -8.93624498e-06)
(0 -0 -9.171223232e-06)
(0 -0 -9.391583781e-06)
(0 -0 -9.594843019e-06)
(0 -0 -9.964963389e-06)
(0 -0 -9.872617554e-06)
(0 -0 -9.749705289e-06)
(0 -0 -9.601847477e-06)