/*--------------------------------*- C++ -*----------------------------------*\
| =========                 |                                                 |
| \\      /  F ield         | foam-extend: Open Source CFD                    |
|  \\    /   O peration     | Version:     4.1                                |
|   \\  /    A nd           | Web:         http://www.foam-extend.org         |
|    \\/     M anipulation  |                                                 |
\*---------------------------------------------------------------------------*/
FoamFile
{
    version     2.0;
    format      ascii;
    class       regIOobject;
    location    "190000/uniform";
    object      profilingInfo;
}
// * * * * * * * * * * * * * * * * * * * * * * * * * * * * * * * * * * * * * //

profilingInfo
(

    {
        id              13;
        parentId        11;
        description     "Foam::Time::writeObject - outputTime";
        calls           19;
        totalTime       4.843117;
        childTime       0;
        onStack         1;
    }

    {
        id              11;
        parentId        1;
        description     "Foam::Time::writeObject";
        calls           19000;
        totalTime       4.916051;
        childTime       4.843117;
        onStack         1;
    }

    {
        id              1;
        description     "application::main";
        calls           1;
        totalTime       1211.699181;
        childTime       981.792032;
        onStack         1;
    }

    {
        id              12;
        parentId        1;
        description     "FO::FFT_probes::execute";
        calls           18999;
        totalTime       3.848921;
        childTime       0;
        onStack         0;
    }

    {
        id              3;
        parentId        2;
        description     "FO::FFT_probes::start";
        calls           1;
        totalTime       3.096156;
        childTime       0;
        onStack         0;
    }

    {
        id              2;
        parentId        1;
        description     "functionObjectList::read";
        calls           1;
        totalTime       3.249794;
        childTime       3.096156;
        onStack         0;
    }

    {
        id              9;
        parentId        1;
        description     "fvMatrix::solve_T";
        calls           19000;
        totalTime       14.890556;
        childTime       8.10888;
        onStack         0;
    }

    {
        id              4;
        parentId        1;
        description     "fvMatrix::solve_U";
        calls           19000;
        totalTime       78.843761;
        childTime       61.989044;
        onStack         0;
    }

    {
        id              7;
        parentId        1;
        description     "fvMatrix::solve_p";
        calls           38000;
        totalTime       876.042949;
        childTime       860.287504;
        onStack         0;
    }

    {
        id              10;
        parentId        9;
        description     "lduMatrix::solver_T";
        calls           19000;
        totalTime       8.10888;
        childTime       0;
        onStack         0;
    }

    {
        id              5;
        parentId        4;
        description     "lduMatrix::solver_Ux";
        calls           19000;
        totalTime       30.226588;
        childTime       0;
        onStack         0;
    }

    {
        id              6;
        parentId        4;
        description     "lduMatrix::solver_Uy";
        calls           19000;
        totalTime       31.762456;
        childTime       0;
        onStack         0;
    }

    {
        id              8;
        parentId        7;
        description     "lduMatrix::solver_p";
        calls           38000;
        totalTime       860.287504;
        childTime       0;
        onStack         0;
    }
);


// ************************************************************************* //
