/*--------------------------------*- C++ -*----------------------------------*\
| =========                 |                                                 |
| \\      /  F ield         | foam-extend: Open Source CFD                    |
|  \\    /   O peration     | Version:     4.1                                |
|   \\  /    A nd           | Web:         http://www.foam-extend.org         |
|    \\/     M anipulation  |                                                 |
\*---------------------------------------------------------------------------*/
FoamFile
{
    version     2.0;
    format      ascii;
    class       volScalarField;
    location    "160000";
    object      p;
}
// * * * * * * * * * * * * * * * * * * * * * * * * * * * * * * * * * * * * * //

dimensions      [0 2 -2 0 0 0 0];

internalField   nonuniform List<scalar> 
15920
(
2.183561929e-08
1.901140495e-08
1.682234307e-08
1.570749977e-08
1.491423372e-08
1.409659675e-08
1.330215086e-08
1.260887106e-08
1.202018513e-08
1.151449777e-08
1.108085408e-08
1.071582482e-08
1.04143617e-08
1.016837483e-08
9.968841392e-09
9.807140514e-09
9.675340902e-09
9.566280669e-09
9.473701748e-09
9.39233626e-09
9.317888343e-09
9.246946654e-09
9.176870924e-09
9.105673596e-09
9.031902816e-09
8.954536762e-09
8.87289119e-09
8.78654017e-09
8.695250916e-09
8.598932083e-09
8.497593712e-09
8.391316759e-09
8.280230571e-09
8.16449677e-09
8.044298361e-09
7.919832808e-09
7.791308181e-09
7.658941468e-09
7.522958392e-09
7.383594201e-09
7.241094852e-09
7.095718361e-09
6.947736038e-09
6.797433507e-09
6.645111459e-09
6.491086072e-09
6.335689039e-09
6.179267281e-09
6.022182342e-09
5.864809451e-09
1.653033587e-08
1.618091537e-08
1.56158309e-08
1.509164351e-08
1.458590289e-08
1.401754542e-08
1.341222803e-08
1.282547745e-08
1.228318624e-08
1.179160071e-08
1.135463138e-08
1.097580832e-08
1.065477506e-08
1.038687714e-08
1.016508767e-08
9.981802273e-09
9.829644961e-09
9.70177423e-09
9.592088746e-09
9.495362379e-09
9.407268412e-09
9.324318995e-09
9.243768052e-09
9.163508642e-09
9.081946984e-09
8.997912339e-09
8.91057828e-09
8.819387197e-09
8.723986284e-09
8.624176435e-09
8.519872361e-09
8.411071944e-09
8.297833294e-09
8.180258034e-09
8.058479481e-09
7.932654669e-09
7.802959289e-09
7.669584704e-09
7.532736495e-09
7.3926341e-09
7.249511165e-09
7.103616256e-09
6.955213626e-09
6.804583763e-09
6.652023666e-09
6.497846844e-09
6.342382999e-09
6.185977655e-09
6.028991369e-09
5.871798366e-09
1.600191853e-08
1.584004948e-08
1.540084043e-08
1.484548961e-08
1.431093106e-08
1.380012762e-08
1.329360514e-08
1.280293328e-08
1.234536607e-08
1.192737352e-08
1.154938098e-08
1.121144685e-08
1.091315436e-08
1.065235903e-08
1.042556142e-08
1.022869052e-08
1.005752791e-08
9.907851004e-09
9.775560079e-09
9.656828524e-09
9.5482159e-09
9.446719746e-09
9.349782146e-09
9.255272705e-09
9.161486165e-09
9.067079507e-09
8.971005667e-09
8.872467405e-09
8.770877841e-09
8.665822577e-09
8.5570255e-09
8.444320067e-09
8.327626036e-09
8.206931065e-09
8.082276382e-09
7.953746008e-09
7.821458967e-09
7.685563866e-09
7.546235338e-09
7.403671862e-09
7.25809448e-09
7.109746e-09
6.95889048e-09
6.805812745e-09
6.650817876e-09
6.494230517e-09
6.336393314e-09
6.177666404e-09
6.018426305e-09
5.859064063e-09
1.500540068e-08
1.486363632e-08
1.458225452e-08
1.42261956e-08
1.385564713e-08
1.348222668e-08
1.309974553e-08
1.271523954e-08
1.234328228e-08
1.19932057e-08
1.166831652e-08
1.136999074e-08
1.109908667e-08
1.085537793e-08
1.063738852e-08
1.044280488e-08
1.026888503e-08
1.011269262e-08
9.971245663e-09
9.841652861e-09
9.721226319e-09
9.60755019e-09
9.49851019e-09
9.39229907e-09
9.28740705e-09
9.182590726e-09
9.076839298e-09
8.969347092e-09
8.859487305e-09
8.746784921e-09
8.630891206e-09
8.511561816e-09
8.388638666e-09
8.262035096e-09
8.131724111e-09
7.997729373e-09
7.860118406e-09
7.718997564e-09
7.574508384e-09
7.426825104e-09
7.276152866e-09
7.12272624e-09
6.966808002e-09
6.808688013e-09
6.648682032e-09
6.487130617e-09
6.324398426e-09
6.160871482e-09
5.996954503e-09
5.833068225e-09
1.436259352e-08
1.429277108e-08
1.412378639e-08
1.387696826e-08
1.359034189e-08
1.328539632e-08
1.296891865e-08
1.264754643e-08
1.233094863e-08
1.202706359e-08
1.174013754e-08
1.147225576e-08
1.122461183e-08
1.099754904e-08
1.079041286e-08
1.060176235e-08
1.042970607e-08
1.027213469e-08
1.012685323e-08
9.991680249e-09
9.864532497e-09
9.743484793e-09
9.626802657e-09
9.512954779e-09
9.400613031e-09
9.288643815e-09
9.176093617e-09
9.062172546e-09
8.946237006e-09
8.827771984e-09
8.706374273e-09
8.581737587e-09
8.453639848e-09
8.321932314e-09
8.186530522e-09
8.047407133e-09
7.904586395e-09
7.758139737e-09
7.608182463e-09
7.45487135e-09
7.298402654e-09
7.139010344e-09
6.97696458e-09
6.812570309e-09
6.646165806e-09
6.478121008e-09
6.308835387e-09
6.138734855e-09
5.968268387e-09
5.797904301e-09
1.387001344e-08
1.382096209e-08
1.369819041e-08
1.351176158e-08
1.328786832e-08
1.30445378e-08
1.278918784e-08
1.252672751e-08
1.226353449e-08
1.200584778e-08
1.175794078e-08
1.152228888e-08
1.130036019e-08
1.109290493e-08
1.089993844e-08
1.072082737e-08
1.055448971e-08
1.039957191e-08
1.025456379e-08
1.011788271e-08
9.987946885e-09
9.863234773e-09
9.74232559e-09
9.623923026e-09
9.506867234e-09
9.390138235e-09
9.272852283e-09
9.154254041e-09
9.033707034e-09
8.910683449e-09
8.784754072e-09
8.655578383e-09
8.522895537e-09
8.386516619e-09
8.24631821e-09
8.102237638e-09
7.954268392e-09
7.802455477e-09
7.646893628e-09
7.487725883e-09
7.325142019e-09
7.159377074e-09
6.99070989e-09
6.819461607e-09
6.645994051e-09
6.470707722e-09
6.29403911e-09
6.116457034e-09
5.938457614e-09
5.760560041e-09
1.347966358e-08
1.344289368e-08
1.3351992e-08
1.321225417e-08
1.303982464e-08
1.284692079e-08
1.263983989e-08
1.242314556e-08
1.220202612e-08
1.198162083e-08
1.176586082e-08
1.155732615e-08
1.135767712e-08
1.116793326e-08
1.098852344e-08
1.081933032e-08
1.065980849e-08
1.050911773e-08
1.036622585e-08
1.022998532e-08
1.009919743e-08
9.972665955e-09
9.849237413e-09
9.727828058e-09
9.60744047e-09
9.487172553e-09
9.366220016e-09
9.243875159e-09
9.119524348e-09
8.992642056e-09
8.862786472e-09
8.729594657e-09
8.592777239e-09
8.452111893e-09
8.307439174e-09
8.158662743e-09
8.005748358e-09
7.848715078e-09
7.687636326e-09
7.522639963e-09
7.353907333e-09
7.1816724e-09
7.006220873e-09
6.827888945e-09
6.647061539e-09
6.464169905e-09
6.27968868e-09
6.094132961e-09
5.908051964e-09
5.722020879e-09
1.316717687e-08
1.31392425e-08
1.306996991e-08
1.296200555e-08
1.282578992e-08
1.266987176e-08
1.249947289e-08
1.231870626e-08
1.213182422e-08
1.194291068e-08
1.175526753e-08
1.157127289e-08
1.139257934e-08
1.122029184e-08
1.105502887e-08
1.089696046e-08
1.074588403e-08
1.060131884e-08
1.046258784e-08
1.032888134e-08
1.019930963e-08
1.007294801e-08
9.948872836e-09
9.826188255e-09
9.704044689e-09
9.581652066e-09
9.458286715e-09
9.333292688e-09
9.206085754e-09
9.076151741e-09
8.943044822e-09
8.80638678e-09
8.665870196e-09
8.521249404e-09
8.372340638e-09
8.219019917e-09
8.061220702e-09
7.898940248e-09
7.732236783e-09
7.561228321e-09
7.38609285e-09
7.207068391e-09
7.024452606e-09
6.838601858e-09
6.649929353e-09
6.458902218e-09
6.266037395e-09
6.071895952e-09
5.877078904e-09
5.682223634e-09
1.291398018e-08
1.289202391e-08
1.283747683e-08
1.275181419e-08
1.264234825e-08
1.251518366e-08
1.237428374e-08
1.222294677e-08
1.206454838e-08
1.190232823e-08
1.173901673e-08
1.157671936e-08
1.141699591e-08
1.126095677e-08
1.11093115e-08
1.096240221e-08
1.08202544e-08
1.068264123e-08
1.054914445e-08
1.041920552e-08
1.029216911e-08
1.016732105e-08
1.004392001e-08
9.921222842e-09
9.798502626e-09
9.67506403e-09
9.550258807e-09
9.423486051e-09
9.294181435e-09
9.161845355e-09
9.026038961e-09
8.88637777e-09
8.742530566e-09
8.594228587e-09
8.441264434e-09
8.283490466e-09
8.120820069e-09
7.953230664e-09
7.780764418e-09
7.603529058e-09
7.421699159e-09
7.235517175e-09
7.045293848e-09
6.851407627e-09
6.654302778e-09
6.454486241e-09
6.252523549e-09
6.049034223e-09
5.844687248e-09
5.640194017e-09
1.270727947e-08
1.268962649e-08
1.264577526e-08
1.257660908e-08
1.248745201e-08
1.238268579e-08
1.226519825e-08
1.213754162e-08
1.200240864e-08
1.186241246e-08
1.171980773e-08
1.157640589e-08
1.143361238e-08
1.129247692e-08
1.115372313e-08
1.101777317e-08
1.088478257e-08
1.075468434e-08
1.062723327e-08
1.050204607e-08
1.037863699e-08
1.025644932e-08
1.013488223e-08
1.001331374e-08
9.891114848e-09
9.767668602e-09
9.642384432e-09
9.514711508e-09
9.384110306e-09
9.250084179e-09
9.112192986e-09
8.970043361e-09
8.823290715e-09
8.671645421e-09
8.5148754e-09
8.352807981e-09
8.185332827e-09
8.012405524e-09
7.834050865e-09
7.650365743e-09
7.46152184e-09
7.267767697e-09
7.069429697e-09
6.866911805e-09
6.660694054e-09
6.451329748e-09
6.239441311e-09
6.025714899e-09
5.810893833e-09
5.595770662e-09
1.25379379e-08
1.252351066e-08
1.248766902e-08
1.243094389e-08
1.23573333e-08
1.227005559e-08
1.217121941e-08
1.206277949e-08
1.194687017e-08
1.182558955e-08
1.170077528e-08
1.157394553e-08
1.144632155e-08
1.131885182e-08
1.119222456e-08
1.106688215e-08
1.094304458e-08
1.082074001e-08
1.069983602e-08
1.058006959e-08
1.046107557e-08
1.034241272e-08
1.022358452e-08
1.010406482e-08
9.983288774e-09
9.860725406e-09
9.735816098e-09
9.608010259e-09
9.476808257e-09
9.341731067e-09
9.202325655e-09
9.058182928e-09
8.908939156e-09
8.754279236e-09
8.593942148e-09
8.427725906e-09
8.255492373e-09
8.077172403e-09
7.892771077e-09
7.702372599e-09
7.506144555e-09
7.304341157e-09
7.097305107e-09
6.885468059e-09
6.66934982e-09
6.449556196e-09
6.226775056e-09
6.001770169e-09
5.775372984e-09
5.548472925e-09
1.239911682e-08
1.23871627e-08
1.235746121e-08
1.23103303e-08
1.224885761e-08
1.217546312e-08
1.209169153e-08
1.19990209e-08
1.189912357e-08
1.179367253e-08
1.16841555e-08
1.157182899e-08
1.145773265e-08
1.134269886e-08
1.12273539e-08
1.111212394e-08
1.099725003e-08
1.088281005e-08
1.076874036e-08
1.065485414e-08
1.054086278e-08
1.042641221e-08
1.03110624e-08
1.019436391e-08
1.007583445e-08
9.954939824e-09
9.831159055e-09
9.703971542e-09
9.572879302e-09
9.437398511e-09
9.297065473e-09
9.151449196e-09
9.000157568e-09
8.842842986e-09
8.679209196e-09
8.509018278e-09
8.332097618e-09
8.148347173e-09
7.95774682e-09
7.760363231e-09
7.556355882e-09
7.345981922e-09
7.129599624e-09
6.907670237e-09
6.680758188e-09
6.449529482e-09
6.214747763e-09
5.977267313e-09
5.738022942e-09
5.498017708e-09
1.228557383e-08
1.227555936e-08
1.225067491e-08
1.221110581e-08
1.215928753e-08
1.209707316e-08
1.202559825e-08
1.1945974e-08
1.185950503e-08
1.176752228e-08
1.167122556e-08
1.157164494e-08
1.146965027e-08
1.136595368e-08
1.126110445e-08
1.115548926e-08
1.104933967e-08
1.094274714e-08
1.083568945e-08
1.072803818e-08
1.061950264e-08
1.050981591e-08
1.039861065e-08
1.028543929e-08
1.016984436e-08
1.005133494e-08
9.929406438e-09
9.803548185e-09
9.673248802e-09
9.538007211e-09
9.397337752e-09
9.2507785e-09
9.097899746e-09
8.938311828e-09
8.771673498e-09
8.597700953e-09
8.416177247e-09
8.226962027e-09
8.030001195e-09
7.825335978e-09
7.613111083e-09
7.393581803e-09
7.16711983e-09
6.934217243e-09
6.695488072e-09
6.451667013e-09
6.203605071e-09
5.952261665e-09
5.69869279e-09
5.444035949e-09
1.219320072e-08
1.218473949e-08
1.216371242e-08
1.213021961e-08
1.208621398e-08
1.203313724e-08
1.197182899e-08
1.190312353e-08
1.182803683e-08
1.174762489e-08
1.166285017e-08
1.15745488e-08
1.148343733e-08
1.139011185e-08
1.129503924e-08
1.119855458e-08
1.110086425e-08
1.100205023e-08
1.090209237e-08
1.080087955e-08
1.069823085e-08
1.059380518e-08
1.048727052e-08
1.037822604e-08
1.026622686e-08
1.015079301e-08
1.003141889e-08
9.907583018e-09
9.778755525e-09
9.644407344e-09
9.504017293e-09
9.357080292e-09
9.203116631e-09
9.041681537e-09
8.872375486e-09
8.694855465e-09
8.508846926e-09
8.314156064e-09
8.110682065e-09
7.898428924e-09
7.677516549e-09
7.448190956e-09
7.210833182e-09
6.965965991e-09
6.714257177e-09
6.456518723e-09
6.193702037e-09
5.926889342e-09
5.657280324e-09
5.386173537e-09
1.211871005e-08
1.211151669e-08
1.209363838e-08
1.206511994e-08
1.202754784e-08
1.198205894e-08
1.192927713e-08
1.186982809e-08
1.180450195e-08
1.173413456e-08
1.165949453e-08
1.158125448e-08
1.149999695e-08
1.141621179e-08
1.133028483e-08
1.124249151e-08
1.115300588e-08
1.106191051e-08
1.096916114e-08
1.087461885e-08
1.077810765e-08
1.067935067e-08
1.057800377e-08
1.047367003e-08
1.036590322e-08
1.025421624e-08
1.013808996e-08
1.001698084e-08
9.890328033e-09
9.757561594e-09
9.618110756e-09
9.471412811e-09
9.316923118e-09
9.154126162e-09
8.982547854e-09
8.80176915e-09
8.611440582e-09
8.41129727e-09
8.201174253e-09
7.981021947e-09
7.750921344e-09
7.511098317e-09
7.26193623e-09
7.003985867e-09
6.737971339e-09
6.464790755e-09
6.185511405e-09
5.901359968e-09
5.613707285e-09
5.324046161e-09
1.205941963e-08
1.205328067e-08
1.203802116e-08
1.201364997e-08
1.198146857e-08
1.194238332e-08
1.18968594e-08
1.184536525e-08
1.178851497e-08
1.172696937e-08
1.166134159e-08
1.159216666e-08
1.151991091e-08
1.144496867e-08
1.136765223e-08
1.128818674e-08
1.120670153e-08
1.112322946e-08
1.103772276e-08
1.095004843e-08
1.086001033e-08
1.076733284e-08
1.067166812e-08
1.057261012e-08
1.046970052e-08
1.036243447e-08
1.025026693e-08
1.013261911e-08
1.000888551e-08
9.878441694e-09
9.74065271e-09
9.594882339e-09
9.440503873e-09
9.276912627e-09
9.103540238e-09
8.919870616e-09
8.725457139e-09
8.519940844e-09
8.303069647e-09
8.074718526e-09
7.834910031e-09
7.583833841e-09
7.321864e-09
7.049572939e-09
6.767741378e-09
6.477362348e-09
6.17963746e-09
5.875965177e-09
5.567921964e-09
5.257235718e-09
1.201310002e-08
1.20078543e-08
1.199481316e-08
1.197396223e-08
1.194637621e-08
1.19127841e-08
1.187353399e-08
1.182897583e-08
1.177958677e-08
1.172588708e-08
1.166837312e-08
1.16074556e-08
1.154350698e-08
1.147683868e-08
1.140769524e-08
1.133624359e-08
1.12625702e-08
1.118667996e-08
1.1108506e-08
1.102790489e-08
1.094465501e-08
1.085846582e-08
1.076897835e-08
1.067577069e-08
1.057836283e-08
1.047622093e-08
1.036876227e-08
1.025536101e-08
1.013535441e-08
1.000804981e-08
9.872732569e-09
9.728675577e-09
9.575150797e-09
9.411443153e-09
9.236866578e-09
9.050782124e-09
8.852618071e-09
8.64189206e-09
8.418235282e-09
8.18141842e-09
7.931378541e-09
7.668245399e-09
7.392365365e-09
7.104321558e-09
6.804949223e-09
6.495344498e-09
6.176863334e-09
5.851108685e-09
5.519907064e-09
5.185275461e-09
1.197786432e-08
1.19733895e-08
1.196226191e-08
1.194445223e-08
1.192085123e-08
1.189204967e-08
1.185830947e-08
1.181988958e-08
1.17771582e-08
1.173050698e-08
1.168041052e-08
1.162710309e-08
1.157089813e-08
1.151204377e-08
1.145072136e-08
1.138704752e-08
1.132107094e-08
1.125276876e-08
1.118204545e-08
1.110873409e-08
1.103259469e-08
1.095331762e-08
1.08705243e-08
1.078376905e-08
1.069254174e-08
1.059627077e-08
1.049432674e-08
1.038602661e-08
1.027063858e-08
1.014738785e-08
1.001546405e-08
9.874030716e-09
9.722237435e-09
9.559234581e-09
9.384190705e-09
9.196312715e-09
8.994869308e-09
8.779217938e-09
8.548835049e-09
8.303348882e-09
8.042573954e-09
7.766546133e-09
7.475556351e-09
7.170180227e-09
6.851301274e-09
6.520125676e-09
6.178185493e-09
5.82732672e-09
5.469681543e-09
5.107626459e-09
1.195208622e-08
1.194828989e-08
1.193884295e-08
1.192370683e-08
1.190362039e-08
1.187906259e-08
1.185023385e-08
1.181732868e-08
1.178064932e-08
1.174052572e-08
1.169717147e-08
1.165094502e-08
1.160204279e-08
1.155064059e-08
1.14968715e-08
1.144081019e-08
1.138246881e-08
1.132179435e-08
1.125866595e-08
1.119289389e-08
1.11242178e-08
1.105230624e-08
1.09767563e-08
1.089709359e-08
1.081277276e-08
1.072317871e-08
1.062762829e-08
1.052537253e-08
1.041559965e-08
1.029743951e-08
1.01699701e-08
1.003222667e-08
9.883213624e-09
9.721919473e-09
9.547335105e-09
9.358476083e-09
9.154409747e-09
8.934287533e-09
8.697382167e-09
8.443128827e-09
8.171169387e-09
7.881398887e-09
7.57401235e-09
7.249548019e-09
6.908922494e-09
6.553454844e-09
6.184876995e-09
5.805325303e-09
5.41730897e-09
5.023656011e-09
1.193433743e-08
1.193115199e-08
1.19232062e-08
1.191045343e-08
1.189350681e-08
1.187276084e-08
1.184837202e-08
1.182049149e-08
1.178934092e-08
1.175518137e-08
1.171822479e-08
1.167868844e-08
1.163674215e-08
1.159251992e-08
1.154611271e-08
1.149755902e-08
1.144684028e-08
1.139387749e-08
1.133852731e-08
1.128057915e-08
1.121975234e-08
1.115569364e-08
1.1087975e-08
1.101609175e-08
1.093946114e-08
1.085742127e-08
1.076923047e-08
1.067406707e-08
1.057103028e-08
1.045914293e-08
1.03373565e-08
1.020455887e-08
1.005958497e-08
9.901231081e-09
9.728273536e-09
9.539493114e-09
9.333705771e-09
9.109800321e-09
8.866783196e-09
8.603829912e-09
8.320342208e-09
8.01600945e-09
7.690872194e-09
7.345383897e-09
6.98046454e-09
6.597540704e-09
6.198568125e-09
5.786030328e-09
5.362904814e-09
4.932594027e-09
1.19233394e-08
1.192071183e-08
1.191411422e-08
1.190351699e-08
1.188942279e-08
1.187216747e-08
1.185186496e-08
1.18286254e-08
1.180262038e-08
1.177405468e-08
1.174311019e-08
1.170994651e-08
1.167469428e-08
1.163745063e-08
1.159827332e-08
1.155717323e-08
1.151410827e-08
1.146897901e-08
1.142162415e-08
1.137181621e-08
1.131925729e-08
1.126357488e-08
1.120431784e-08
1.114095273e-08
1.107286014e-08
1.099933107e-08
1.091956334e-08
1.083265869e-08
1.073762112e-08
1.063335726e-08
1.051867887e-08
1.039230796e-08
1.025288494e-08
1.009898121e-08
9.929117676e-09
9.741790432e-09
9.535504601e-09
9.308817087e-09
9.060389348e-09
8.789050892e-09
8.493872639e-09
8.174247702e-09
7.829976903e-09
7.461355613e-09
7.069255244e-09
6.655189898e-09
6.221359653e-09
5.770661856e-09
5.306658416e-09
4.833490553e-09
1.191794359e-08
1.191585038e-08
1.191049521e-08
1.190187621e-08
1.18904259e-08
1.187639479e-08
1.185987267e-08
1.18409527e-08
1.181977666e-08
1.17965076e-08
1.177129253e-08
1.174425489e-08
1.171549394e-08
1.168508016e-08
1.16530481e-08
1.161938895e-08
1.158404443e-08
1.154690158e-08
1.150778749e-08
1.146646369e-08
1.142262046e-08
1.137587117e-08
1.132574672e-08
1.12716897e-08
1.121304815e-08
1.114906889e-08
1.107889087e-08
1.100153924e-08
1.091592054e-08
1.082081954e-08
1.071489784e-08
1.059669477e-08
1.046463187e-08
1.031702241e-08
1.015208807e-08
9.967984271e-09
9.762835676e-09
9.53478357e-09
9.28204679e-09
9.002998111e-09
8.696256293e-09
8.360791555e-09
7.99604105e-09
7.602030842e-09
7.179497702e-09
6.729997283e-09
6.255982725e-09
5.760839716e-09
5.248861956e-09
4.725150564e-09
1.19173907e-08
1.191561232e-08
1.191135623e-08
1.190457015e-08
1.189556028e-08
1.188452593e-08
1.187154621e-08
1.185669975e-08
1.184010309e-08
1.182188865e-08
1.180217714e-08
1.178106884e-08
1.175864244e-08
1.173495079e-08
1.171001393e-08
1.168381193e-08
1.165627868e-08
1.162729589e-08
1.159668686e-08
1.156420981e-08
1.152955097e-08
1.149231772e-08
1.145203116e-08
1.140811795e-08
1.135990112e-08
1.130659032e-08
1.124727183e-08
1.11808992e-08
1.11062843e-08
1.102208926e-08
1.092681942e-08
1.081881854e-08
1.069626791e-08
1.055719095e-08
1.039946535e-08
1.022084512e-08
1.00189953e-08
9.791542301e-09
9.536142316e-09
9.25057039e-09
8.93283251e-09
8.581301105e-09
8.194870915e-09
7.773130443e-09
7.316541285e-09
6.82660917e-09
6.306022163e-09
5.758731519e-09
5.189950298e-09
4.606041135e-09
1.19201764e-08
1.19188794e-08
1.19157089e-08
1.191064056e-08
1.19039161e-08
1.189570381e-08
1.188607477e-08
1.187509737e-08
1.186287149e-08
1.184951004e-08
1.183511663e-08
1.181977753e-08
1.180355999e-08
1.178650818e-08
1.176863673e-08
1.174992369e-08
1.173030416e-08
1.170966351e-08
1.168783037e-08
1.166456916e-08
1.163957236e-08
1.161245215e-08
1.158273099e-08
1.1549831e-08
1.151306181e-08
1.147160769e-08
1.142451408e-08
1.137067398e-08
1.130881373e-08
1.123747848e-08
1.11550181e-08
1.105957488e-08
1.094907479e-08
1.082122419e-08
1.067351393e-08
1.050323419e-08
1.030750407e-08
1.008332085e-08
9.827632752e-09
9.537439193e-09
9.209923454e-09
8.842622683e-09
8.433635183e-09
7.981859266e-09
7.48725397e-09
6.951103794e-09
6.376255476e-09
5.767286334e-09
5.130560598e-09
4.474122233e-09
1.192567803e-08
1.192480505e-08
1.192264869e-08
1.19191997e-08
1.191463966e-08
1.190910307e-08
1.19026587e-08
1.189537389e-08
1.188733973e-08
1.187865728e-08
1.186942087e-08
1.185971106e-08
1.184959231e-08
1.1839109e-08
1.182827934e-08
1.181708863e-08
1.180548246e-08
1.179335965e-08
1.178056457e-08
1.176687929e-08
1.175201487e-08
1.173560154e-08
1.171717727e-08
1.169617464e-08
1.167190606e-08
1.164354784e-08
1.161012287e-08
1.157048176e-08
1.152328224e-08
1.146696708e-08
1.139974142e-08
1.131955083e-08
1.122406147e-08
1.11106446e-08
1.097636822e-08
1.081799938e-08
1.063202237e-08
1.041467924e-08
1.016203976e-08
9.870108112e-09
9.534974632e-09
9.153022468e-09
8.721195809e-09
8.237326824e-09
7.700510836e-09
7.111510619e-09
6.473150931e-09
5.790641433e-09
5.071754059e-09
4.326768031e-09
1.19330198e-08
1.193253662e-08
1.193133755e-08
1.192942204e-08
1.192691381e-08
1.192391986e-08
1.192051181e-08
1.191676113e-08
1.191275567e-08
1.190859158e-08
1.190436126e-08
1.190014725e-08
1.189601922e-08
1.189203008e-08
1.188821038e-08
1.188456172e-08
1.188104983e-08
1.187759736e-08
1.18740761e-08
1.187029859e-08
1.186600863e-08
1.186087004e-08
1.185445333e-08
1.184622046e-08
1.183550784e-08
1.182150728e-08
1.180324433e-08
1.177955361e-08
1.174905102e-08
1.171010313e-08
1.166079449e-08
1.159889346e-08
1.152181757e-08
1.142660099e-08
1.13098674e-08
1.116781266e-08
1.099620236e-08
1.079039248e-08
1.054538407e-08
1.025592539e-08
9.916674687e-09
9.522439731e-09
9.068510601e-09
8.551094326e-09
7.967848136e-09
7.318495207e-09
6.605477526e-09
5.834551555e-09
5.01519418e-09
4.160662407e-09
1.194138824e-08
1.194127074e-08
1.194097584e-08
1.194051241e-08
1.193995092e-08
1.193937528e-08
1.193886323e-08
1.19384947e-08
1.193835966e-08
1.193855527e-08
1.193917845e-08
1.194032053e-08
1.194206375e-08
1.194447744e-08
1.194761271e-08
1.19514963e-08
1.195612379e-08
1.196145256e-08
1.196739414e-08
1.197380553e-08
1.198047883e-08
1.198712886e-08
1.199337854e-08
1.199874219e-08
1.200260645e-08
1.200420807e-08
1.200260782e-08
1.199665996e-08
1.198497706e-08
1.19658901e-08
1.193740406e-08
1.189714887e-08
1.184232674e-08
1.176965726e-08
1.167532396e-08
1.155492688e-08
1.140344724e-08
1.121523285e-08
1.098401912e-08
1.070300555e-08
1.03650098e-08
9.962723745e-09
9.489101811e-09
8.937911455e-09
8.30446422e-09
7.586530199e-09
6.785404726e-09
5.907018668e-09
4.962868635e-09
3.97039939e-09
1.195001705e-08
1.195024409e-08
1.19508026e-08
1.195171196e-08
1.195299408e-08
1.195471369e-08
1.195695754e-08
1.195981745e-08
1.196339002e-08
1.196777847e-08
1.197308989e-08
1.19794305e-08
1.198690176e-08
1.199559641e-08
1.200559378e-08
1.201695414e-08
1.202971249e-08
1.204387199e-08
1.205939658e-08
1.207620209e-08
1.20941454e-08
1.211301139e-08
1.213249785e-08
1.215219786e-08
1.217157889e-08
1.218995775e-08
1.22064705e-08
1.222003662e-08
1.222931683e-08
1.223266353e-08
1.222806328e-08
1.221307103e-08
1.218473618e-08
1.213952077e-08
1.207321136e-08
1.198082905e-08
1.185654444e-08
1.169360748e-08
1.148430812e-08
1.121999291e-08
1.089117153e-08
1.048775261e-08
9.999460222e-09
9.416493063e-09
8.730479335e-09
7.935760994e-09
7.031008503e-09
6.021125982e-09
4.919252655e-09
3.748326556e-09
1.195818319e-08
1.195873414e-08
1.196009513e-08
1.196229677e-08
1.196531705e-08
1.196920495e-08
1.197405862e-08
1.197998445e-08
1.198708924e-08
1.199548671e-08
1.20052989e-08
1.201665221e-08
1.202967287e-08
1.204448321e-08
1.206119758e-08
1.207991759e-08
1.210072682e-08
1.21236849e-08
1.214882051e-08
1.217612256e-08
1.220552946e-08
1.223691633e-08
1.227007998e-08
1.230472093e-08
1.23404214e-08
1.237661825e-08
1.241256999e-08
1.244731674e-08
1.247963186e-08
1.25079633e-08
1.253036318e-08
1.254440445e-08
1.254708335e-08
1.253470651e-08
1.2502761e-08
1.244576954e-08
1.235713661e-08
1.222899543e-08
1.205207075e-08
1.181558398e-08
1.150724353e-08
1.111338271e-08
1.061933084e-08
1.001013893e-08
9.271789564e-09
8.393003764e-09
7.367645321e-09
6.197664811e-09
4.896359715e-09
3.491826573e-09
1.19652066e-08
1.19660601e-08
1.196817044e-08
1.197157985e-08
1.197622707e-08
1.198214826e-08
1.198945459e-08
1.199826905e-08
1.200871154e-08
1.202090982e-08
1.203500481e-08
1.205114727e-08
1.206949278e-08
1.20901983e-08
1.211341907e-08
1.213930507e-08
1.216799672e-08
1.219961982e-08
1.223427904e-08
1.227204986e-08
1.231296862e-08
1.235702076e-08
1.240412656e-08
1.245412347e-08
1.250674409e-08
1.256158873e-08
1.261809116e-08
1.267547592e-08
1.273270521e-08
1.27884131e-08
1.284082449e-08
1.288765552e-08
1.292599216e-08
1.29521434e-08
1.296146508e-08
1.294815099e-08
1.290499231e-08
1.282311117e-08
1.269167889e-08
1.249764002e-08
1.222548647e-08
1.185715629e-08
1.137217149e-08
1.074821249e-08
9.962398089e-09
8.993740164e-09
7.826991229e-09
6.458228048e-09
4.900689549e-09
3.189890601e-09
1.197045198e-08
1.197158539e-08
1.19743881e-08
1.197891467e-08
1.198506912e-08
1.199287711e-08
1.200246386e-08
1.201397019e-08
1.202753134e-08
1.204329172e-08
1.206141404e-08
1.208207645e-08
1.210546729e-08
1.213178211e-08
1.216122184e-08
1.219399052e-08
1.223029226e-08
1.227032698e-08
1.231428504e-08
1.236234036e-08
1.241464211e-08
1.247130463e-08
1.253239459e-08
1.259791481e-08
1.266778374e-08
1.27418095e-08
1.281965657e-08
1.290080269e-08
1.298448378e-08
1.306962441e-08
1.315475013e-08
1.323787602e-08
1.331636479e-08
1.338674806e-08
1.344450367e-08
1.348377939e-08
1.349705358e-08
1.347472801e-08
1.340465303e-08
1.327159384e-08
1.305667098e-08
1.273684688e-08
1.228457176e-08
1.166778436e-08
1.085053543e-08
9.795175325e-09
8.466461275e-09
6.842410595e-09
4.927185201e-09
2.774954582e-09
1.197333313e-08
1.197472219e-08
1.19781546e-08
1.198369961e-08
1.199123111e-08
1.200076548e-08
1.201244214e-08
1.202642054e-08
1.204285257e-08
1.206190108e-08
1.208375236e-08
1.210861378e-08
1.213670864e-08
1.216827377e-08
1.22035591e-08
1.224282683e-08
1.228634947e-08
1.233440687e-08
1.23872823e-08
1.244525752e-08
1.250860663e-08
1.257758815e-08
1.265243471e-08
1.273333975e-08
1.28204403e-08
1.291379432e-08
1.30133506e-08
1.311890861e-08
1.323006592e-08
1.334614972e-08
1.346612814e-08
1.358849392e-08
1.371111102e-08
1.383101363e-08
1.394414511e-08
1.404502036e-08
1.412628805e-08
1.41781681e-08
1.418774193e-08
1.413807723e-08
1.400719313e-08
1.376690999e-08
1.338175646e-08
1.280808681e-08
1.199384602e-08
1.08792954e-08
9.397863353e-09
7.4874517e-09
5.092786003e-09
2.263897994e-09
1.197332448e-08
1.197492873e-08
1.197892403e-08
1.198538292e-08
1.19941496e-08
1.200523419e-08
1.201879007e-08
1.203499525e-08
1.205401894e-08
1.207604327e-08
1.210127872e-08
1.212996263e-08
1.216235405e-08
1.219873231e-08
1.223939792e-08
1.228467309e-08
1.233490101e-08
1.239044445e-08
1.245168379e-08
1.251901446e-08
1.259284329e-08
1.267358351e-08
1.2761648e-08
1.285744048e-08
1.296134314e-08
1.307369916e-08
1.319478818e-08
1.332479305e-08
1.346375511e-08
1.361151335e-08
1.376762195e-08
1.393123876e-08
1.410097448e-08
1.427468758e-08
1.444920591e-08
1.461995016e-08
1.478042205e-08
1.4921505e-08
1.50305148e-08
1.508991943e-08
1.507564703e-08
1.495487957e-08
1.468351959e-08
1.420326698e-08
1.344061004e-08
1.230546573e-08
1.069876034e-08
8.515711609e-09
5.617647558e-09
1.980117889e-09
1.196991625e-08
1.197172174e-08
1.197620373e-08
1.198347063e-08
1.199331789e-08
1.200575845e-08
1.202096126e-08
1.203912139e-08
1.206042496e-08
1.20850732e-08
1.21133004e-08
1.214537323e-08
1.218158597e-08
1.222225993e-08
1.226774569e-08
1.231842481e-08
1.237471064e-08
1.243704865e-08
1.250591677e-08
1.258182532e-08
1.266531632e-08
1.275696203e-08
1.285736293e-08
1.29671443e-08
1.308695016e-08
1.321743266e-08
1.335923597e-08
1.351297355e-08
1.367919624e-08
1.385834611e-08
1.405068958e-08
1.425622299e-08
1.44745413e-08
1.470465319e-08
1.494471878e-08
1.519167814e-08
1.544072437e-08
1.568454724e-08
1.591223919e-08
1.610769957e-08
1.624730043e-08
1.629636514e-08
1.620417419e-08
1.589599256e-08
1.526555814e-08
1.415821422e-08
1.239480881e-08
9.73242309e-09
6.037424733e-09
1.246494838e-09
1.196271155e-08
1.19646867e-08
1.196960388e-08
1.197753027e-08
1.198828829e-08
1.200187468e-08
1.201847058e-08
1.203828765e-08
1.206152739e-08
1.208840884e-08
1.211918866e-08
1.215416097e-08
1.219365319e-08
1.22380263e-08
1.228767809e-08
1.234304623e-08
1.240461068e-08
1.247289592e-08
1.254847349e-08
1.263196457e-08
1.272404251e-08
1.28254358e-08
1.293693111e-08
1.305937585e-08
1.319367893e-08
1.334080894e-08
1.350178918e-08
1.367768849e-08
1.38696056e-08
1.40786433e-08
1.430586695e-08
1.455224046e-08
1.481853134e-08
1.510517091e-08
1.541204638e-08
1.573819151e-08
1.608132932e-08
1.643719104e-08
1.679848689e-08
1.715332629e-08
1.748275949e-08
1.775675636e-08
1.79276857e-08
1.791799919e-08
1.760176277e-08
1.675440572e-08
1.503032963e-08
1.169217191e-08
6.186487924e-09
-2.901101728e-09
1.195135794e-08
1.195346763e-08
1.195871053e-08
1.196718543e-08
1.197867675e-08
1.199318519e-08
1.201090295e-08
1.203205461e-08
1.205685668e-08
1.208554449e-08
1.211839422e-08
1.21557243e-08
1.219789167e-08
1.224529267e-08
1.229836724e-08
1.235760339e-08
1.242354108e-08
1.249677637e-08
1.257796588e-08
1.266783198e-08
1.276716895e-08
1.287685046e-08
1.299783792e-08
1.313118867e-08
1.327806383e-08
1.343973628e-08
1.361759864e-08
1.381316954e-08
1.402809652e-08
1.426415398e-08
1.452323342e-08
1.480732008e-08
1.511844781e-08
1.545862335e-08
1.582970343e-08
1.623319663e-08
1.666995088e-08
1.713966871e-08
1.76401514e-08
1.816610743e-08
1.870726259e-08
1.924526262e-08
1.974853576e-08
2.016262775e-08
2.039329549e-08
2.025982139e-08
1.942882972e-08
1.698917517e-08
1.15548611e-08
-4.63324874e-09
1.193557498e-08
1.193778467e-08
1.194327259e-08
1.195214576e-08
1.196417924e-08
1.197937106e-08
1.199791925e-08
1.202006235e-08
1.204602728e-08
1.207606289e-08
1.21104615e-08
1.21495614e-08
1.219374398e-08
1.224343487e-08
1.229910911e-08
1.236129676e-08
1.243058834e-08
1.250764029e-08
1.259318121e-08
1.268801964e-08
1.279305373e-08
1.290928284e-08
1.303782054e-08
1.317990824e-08
1.333693009e-08
1.351043042e-08
1.370213405e-08
1.391396842e-08
1.414808611e-08
1.440688783e-08
1.46930456e-08
1.50095226e-08
1.535958382e-08