/*--------------------------------*- C++ -*----------------------------------*\
| =========                 |                                                 |
| \\      /  F ield         | foam-extend: Open Source CFD                    |
|  \\    /   O peration     | Version:     4.1                                |
|   \\  /    A nd           | Web:         http://www.foam-extend.org         |
|    \\/     M anipulation  |                                                 |
\*---------------------------------------------------------------------------*/
FoamFile
{
    version     2.0;
    format      ascii;
    class       surfaceScalarField;
    location    "160000";
    object      phi;
}
// * * * * * * * * * * * * * * * * * * * * * * * * * * * * * * * * * * * * * //

dimensions      [0 3 -1 0 0 0 0];

internalField   nonuniform List<scalar> 
31542
(
1.062509674e-07
3.079032638e-09
1.006104689e-07
5.640497784e-09
9.409401092e-08
6.5164575e-09
8.729416286e-08
6.799847599e-09
8.049260508e-08
6.801557388e-09
7.394897861e-08
6.543626124e-09
6.783749403e-08
6.111484293e-09
6.225342636e-08
5.584067442e-09
5.724227321e-08
5.011152966e-09
5.281439335e-08
4.427879719e-09
4.895533512e-08
3.859058148e-09
4.563233514e-08
3.32299993e-09
4.280056494e-08
2.831770186e-09
4.040900838e-08
2.391556581e-09
3.840482798e-08
2.004180442e-09
3.67363099e-08
1.668518105e-09
3.535479137e-08
1.381518555e-09
3.421582931e-08
1.13896205e-09
3.32797812e-08
9.360480804e-10
3.25119606e-08
7.678205578e-10
3.18825092e-08
6.294513546e-10
3.136608981e-08
5.164193411e-10
3.094147461e-08
4.246151572e-10
3.059108535e-08
3.503892201e-10
3.03004921e-08
2.905931978e-10
3.005793979e-08
2.425522568e-10
2.985391842e-08
2.040212843e-10
2.968077329e-08
1.731450114e-10
2.953235831e-08
1.484148205e-10
2.940373521e-08
1.286228784e-10
2.929091764e-08
1.128172926e-10
2.919065684e-08
1.002604673e-10
2.910026498e-08
9.039147634e-11
2.901747178e-08
8.279281433e-11
2.894030978e-08
7.716161068e-11
2.886702436e-08
7.328506559e-11
2.879600447e-08
7.101960929e-11
2.872573105e-08
7.027322522e-11
2.865474042e-08
7.099053858e-11
2.858159999e-08
7.314044163e-11
2.850489404e-08
7.670607616e-11
2.842321735e-08
8.167688751e-11
2.833517527e-08
8.804236448e-11
2.823938849e-08
9.57871028e-11
2.813450192e-08
1.048869208e-10
2.801919642e-08
1.153058423e-10
2.789220266e-08
1.269940801e-10
2.775231635e-08
1.398865791e-10
2.759841447e-08
1.539020844e-10
1.689429269e-10
2.742947168e-08
1.113827948e-07
1.026237213e-09
1.139926285e-07
3.030663028e-09
1.160776233e-07
4.431461789e-09
1.174475476e-07
5.429922553e-09
1.18060967e-07
6.188137278e-09
1.179130864e-07
6.691506247e-09
1.17097444e-07
6.927126228e-09
1.157424989e-07
6.939012198e-09
1.1397512e-07
6.778531693e-09
1.119138478e-07
6.489151859e-09
1.096642038e-07
6.108702099e-09
1.073154405e-07
5.671763204e-09
1.049395552e-07
5.207655488e-09
1.025924425e-07
4.738669229e-09
1.003154788e-07
4.281144077e-09
9.813762551e-08
3.846371329e-09
9.607761067e-08
3.441533278e-09
9.414603162e-08
3.070540961e-09
9.234727387e-08
2.734805701e-09
9.068115743e-08
2.433936867e-09
8.914427936e-08
2.1663293e-09
8.773106783e-08
1.929630735e-09
8.643458921e-08
1.721093648e-09
8.524722338e-08
1.537754906e-09
8.416103833e-08
1.37677807e-09
8.316808365e-08
1.235506711e-09
8.226059651e-08
1.11150814e-09
8.143112828e-08
1.002612864e-09
8.067261868e-08
9.069239488e-10
7.997842993e-08
8.228110658e-10
7.93423515e-08
7.488950908e-10
7.875858477e-08
6.840265131e-10
7.822171504e-08
6.27260497e-10
7.772667634e-08
5.778308521e-10
7.726871292e-08
5.351244463e-10
7.684334059e-08
4.986569256e-10
7.644630971e-08
4.680501756e-10
7.607357106e-08
4.430117175e-10
7.572124549e-08
4.233161236e-10
7.538559768e-08
4.087884286e-10
7.506301459e-08
3.992894855e-10
7.474998878e-08
3.947031262e-10
7.444310673e-08
3.949249161e-10
7.413904205e-08
3.998523121e-10
7.383455342e-08
4.093760626e-10
7.352648679e-08
4.233729538e-10
7.321178073e-08
4.417005392e-10
7.288747611e-08
4.64191497e-10
7.25507289e-08
4.906494972e-10
5.208464841e-10
7.219882544e-08
1.096478434e-07
7.083933007e-10
1.107357302e-07
1.942775455e-09
1.121988522e-07
2.968339067e-09
1.138575096e-07
3.771264563e-09
1.156219589e-07
4.423687466e-09
1.173637036e-07
4.949761141e-09
1.189568051e-07
5.334024315e-09
1.203201627e-07
5.575654325e-09
1.214089531e-07
5.689741072e-09
1.222048266e-07
5.693278192e-09
1.227108068e-07
5.602721813e-09
1.229466788e-07
5.435891213e-09
1.229429538e-07
5.211380439e-09
1.227349651e-07
4.946657968e-09
1.223590875e-07
4.657021637e-09
1.218502143e-07
4.355244537e-09
1.212402456e-07
4.051501917e-09
1.205572753e-07
3.753511271e-09
1.198253052e-07
3.466775756e-09
1.190643171e-07
3.194924868e-09
1.182905596e-07
2.940086736e-09
1.175169506e-07
2.703239729e-09
1.167535253e-07
2.484518897e-09
1.160078073e-07
2.283472714e-09
1.152852853e-07
2.099299944e-09
1.145897917e-07
1.931000161e-09
1.139238182e-07
1.777481373e-09
1.132887864e-07
1.637644378e-09
1.126852684e-07
1.510441504e-09
1.121131658e-07
1.394913238e-09
1.11571852e-07
1.290208378e-09
1.110602857e-07
1.195592319e-09
1.105770988e-07
1.110446992e-09
1.101206641e-07
1.034265108e-09
1.096891474e-07
9.666407265e-10
1.092805465e-07
9.072575741e-10
1.088927203e-07
8.558761328e-10
1.085234117e-07
8.123203202e-10
1.081702636e-07
7.764642095e-10
1.078308331e-07
7.482190281e-10
1.075026022e-07
7.275206638e-10
1.071829877e-07
7.143178911e-10
1.068693515e-07
7.085613835e-10
1.065590106e-07
7.10193628e-10
1.062492479e-07
7.191391106e-10
1.059373266e-07
7.352945209e-10
1.056205016e-07
7.585258827e-10
1.052960343e-07
7.886590961e-10
1.049612095e-07
8.254745282e-10
8.687029787e-10
1.046133532e-07
1.095660633e-07
4.723294695e-10
1.100933966e-07
1.415441331e-09
1.108141691e-07
2.247565967e-09
1.1165571e-07
2.929723092e-09
1.126056423e-07
3.473754644e-09
1.136542662e-07
3.901136824e-09
1.147690862e-07
4.219204042e-09
1.15911e-07
4.433740264e-09
1.170438998e-07
4.556840981e-09
1.181350063e-07
4.602171514e-09
1.191560991e-07
4.581628923e-09
1.200859227e-07
4.506067418e-09
1.209111352e-07
4.386167943e-09
1.216256052e-07
4.232187819e-09
1.222292276e-07
4.053399234e-09
1.22726583e-07
3.857889067e-09
1.231255526e-07
3.6525323e-09
1.234360565e-07
3.443007352e-09
1.236689963e-07
3.233835878e-09
1.238354484e-07
3.028472727e-09
1.239460961e-07
2.82943899e-09
1.240108624e-07
2.638473301e-09
1.240386977e-07
2.456683482e-09
1.240374822e-07
2.284688112e-09
1.240140359e-07
2.122745957e-09
1.239741684e-07
1.970867382e-09
1.239227486e-07
1.828900923e-09
1.238637913e-07
1.696601272e-09
1.238005499e-07
1.573682441e-09
1.237356058e-07
1.459856991e-09
1.23670951e-07
1.354862776e-09
1.23608063e-07
1.258479873e-09
1.235479697e-07
1.170539928e-09
1.234913048e-07
1.090929684e-09
1.234383551e-07
1.019590233e-09
1.233890996e-07
9.565128969e-10
1.23343243e-07
9.017325417e-10
1.233002436e-07
8.55319714e-10
1.232593361e-07
8.17371673e-10
1.232195525e-07
7.880026528e-10
1.231797396e-07
7.673336329e-10
1.231385755e-07
7.554821935e-10
1.230945847e-07
7.525523682e-10
1.230461537e-07
7.586247608e-10
1.22991546e-07
7.73747086e-10
1.229289154e-07
7.97925412e-10
1.228563248e-07
8.311167365e-10
1.227717632e-07
8.732210883e-10
1.226731633e-07
9.240747397e-10
9.83445817e-10
1.225584208e-07
1.094413063e-07
3.610227008e-10
1.097669792e-07
1.08976775e-09
1.102574613e-07
1.757083281e-09
1.108595709e-07
2.327613001e-09
1.115363104e-07
2.797014667e-09
1.122646338e-07
3.172813021e-09
1.130236913e-07
3.460146143e-09
1.137948402e-07
3.662591109e-09
1.145645003e-07
3.787180594e-09
1.15322752e-07
3.843919579e-09
1.160612502e-07
3.843130654e-09
1.167728284e-07
3.794489072e-09
1.174518477e-07
3.70714853e-09
1.180943682e-07
3.589667214e-09
1.186980653e-07
3.449702089e-09
1.192621018e-07
3.293852499e-09
1.197869578e-07
3.127676328e-09
1.202742046e-07
2.955760489e-09
1.20726243e-07
2.781797479e-09
1.211460412e-07
2.608674576e-09
1.215368997e-07
2.438580467e-09
1.219022534e-07
2.2731195e-09
1.222455141e-07
2.113422609e-09
1.225699529e-07
1.96024907e-09
1.228786202e-07
1.814078394e-09
1.231742963e-07
1.675190926e-09
1.234594636e-07
1.543733345e-09
1.237362952e-07
1.419769289e-09
1.240066578e-07
1.303319451e-09
1.242721209e-07
1.194393514e-09
1.24533971e-07
1.093012339e-09
1.247932276e-07
9.992230369e-10
1.250506595e-07
9.131078317e-10
1.25306801e-07
8.347879801e-10
1.255619665e-07
7.644245231e-10
1.258162638e-07
7.02215553e-10
1.260696055e-07
6.483907969e-10
1.263217196e-07
6.032055622e-10
1.265721581e-07
5.669330928e-10
1.268203053e-07
5.398554391e-10
1.270653853e-07
5.22253712e-10
1.273064694e-07
5.143980941e-10
1.275424843e-07
5.165376184e-10
1.277722193e-07
5.288898745e-10
1.279943357e-07
5.516308871e-10
1.282073759e-07
5.848854294e-10
1.28409775e-07
6.287179162e-10
1.285998724e-07
6.831239971e-10
1.287759262e-07
7.480213289e-10
8.232455242e-10
1.289361268e-07
1.094059743e-07
2.850480357e-10
1.096390345e-07
8.567069703e-10
1.100042457e-07
1.391871593e-09
1.104663001e-07
1.865558159e-09
1.10995514e-07
2.267800322e-09
1.115700557e-07
2.598270934e-09
1.121716092e-07
2.858592244e-09
1.127836591e-07
3.050540906e-09
1.133929466e-07
3.177892798e-09
1.139900272e-07
3.246838714e-09
1.145684786e-07
3.264679001e-09
1.151241638e-07
3.238803679e-09
1.15654875e-07
3.176437144e-09
1.161600074e-07
3.084534709e-09
1.166401488e-07
2.969560615e-09
1.170967134e-07
2.837287888e-09
1.175316712e-07
2.692718523e-09
1.179473446e-07
2.540087105e-09
1.183462435e-07
2.382898574e-09
1.187309328e-07
2.223985308e-09
1.191039307e-07
2.065582539e-09
1.19467635e-07
1.909415067e-09
1.198242716e-07
1.756785782e-09
1.201758608e-07
1.608659599e-09
1.205241988e-07
1.465740089e-09
1.208708522e-07
1.328537144e-09
1.212171609e-07
1.197424234e-09
1.215642455e-07
1.072684291e-09
1.219130174e-07
9.545472629e-10
1.222641901e-07
8.432204769e-10
1.226182924e-07
7.389098188e-10
1.229756797e-07
6.418355338e-10
1.233365455e-07
5.522418909e-10
1.237009308e-07
4.704026678e-10
1.240687309e-07
3.966243575e-10
1.244397034e-07
3.312430122e-10
1.248134747e-07
2.746194276e-10
1.251895431e-07
2.271371168e-10
1.255672815e-07
1.891946882e-10
1.259459404e-07
1.611964935e-10
1.263246511e-07
1.435429837e-10
1.267024289e-07
1.366204019e-10
1.270781765e-07
1.407900889e-10
1.274506888e-07
1.563776726e-10
1.278186576e-07
1.836622247e-10
1.281806778e-07
2.228654611e-10
1.285352545e-07
2.74141396e-10
1.288808129e-07
3.375658224e-10
1.292157106e-07
4.131239413e-10
5.00719516e-10
1.295382369e-07
1.093871036e-07
2.279440826e-10
1.095588038e-07
6.850063149e-10
1.098324007e-07
1.118274269e-09
1.101878202e-07
1.51013827e-09
1.106053155e-07
1.85030458e-09
1.110682971e-07
2.135289057e-09
1.115622098e-07
2.364679125e-09
1.120735425e-07
2.53920789e-09
1.125904538e-07
2.660981117e-09
1.131035303e-07
2.733761887e-09
1.136057775e-07
2.762431613e-09
1.140922798e-07
2.752301132e-09
1.145599481e-07
2.708768638e-09
1.150073075e-07
2.637175198e-09
1.154342214e-07
2.5426467e-09
1.158415813e-07
2.429927971e-09
1.16231022e-07
2.303277781e-09
1.166046785e-07
2.166430679e-09
1.1696498e-07
2.022597065e-09
1.173144811e-07
1.87448418e-09
1.176557295e-07
1.724334034e-09
1.179911697e-07
1.573974657e-09
1.183230768e-07
1.424878435e-09
1.186535143e-07
1.278221837e-09
1.189843111e-07
1.13494293e-09
1.193170536e-07
9.95794297e-10
1.196530858e-07
8.613916819e-10
1.199935182e-07
7.322515204e-10
1.2033924e-07
6.088251869e-10
1.206909307e-07
4.915295771e-10
1.210490735e-07
3.807667852e-10
1.214139688e-07
2.769401512e-10
1.217857503e-07
1.804603339e-10
1.22164394e-07
9.175890376e-11
1.225497307e-07
1.128765399e-11
1.22941446e-07
-6.047231934e-11
1.233390845e-07
-1.230189992e-10
1.237420575e-07
-1.758359043e-10
1.241496508e-07
-2.183985511e-10
1.245610297e-07
-2.501824158e-10
1.249752439e-07
-2.706711327e-10
1.253912311e-07
-2.793667669e-10
1.258078222e-07
-2.758009462e-10
1.262237466e-07
-2.595466113e-10
1.266376385e-07
-2.302295891e-10
1.270480448e-07
-1.875407928e-10
1.274534306e-07
-1.312443071e-10
1.27852174e-07
-6.117744082e-11
1.282426161e-07
2.268196221e-11
1.203078697e-10
1.286230279e-07
1.093732924e-07
1.846514306e-10
1.095038039e-07
5.544943824e-10
1.097147625e-07
9.073153515e-10
1.099944388e-07
1.230461698e-09
1.103293987e-07
1.515344326e-09
1.107069332e-07
1.75775414e-09
1.111154886e-07
1.956123429e-09
1.115444635e-07
2.110232553e-09
1.119844203e-07
2.221024043e-09
1.124274894e-07
2.290692443e-09
1.128674851e-07
2.322435604e-09
1.132997679e-07
2.320018078e-09
1.137210851e-07
2.287451176e-09
1.14129442e-07
2.22881821e-09
1.145239483e-07
2.148140284e-09
1.149046291e-07
2.049247195e-09
1.152722273e-07
1.935679623e-09
1.156280218e-07
1.810636155e-09
1.159736651e-07
1.676953749e-09
1.163110408e-07
1.537108393e-09
1.166421441e-07
1.393230623e-09
1.169689854e-07
1.247133179e-09
1.172935168e-07
1.10034682e-09
1.17617578e-07
9.541602648e-10
1.179428588e-07
8.096617403e-10
1.182708754e-07
6.677774163e-10
1.18602951e-07
5.29315679e-10
1.189402191e-07
3.949831312e-10
1.192836176e-07
2.654265049e-10
1.196338966e-07
1.412503422e-10
1.199916288e-07
2.303443636e-11
1.203572004e-07
-8.863149835e-11
1.207308257e-07
-1.931650889e-10
1.211125464e-07
-2.899618276e-10
1.215022386e-07
-3.784044699e-10
1.218996263e-07
-4.578600285e-10
1.223042889e-07
-5.276815576e-10
1.227156616e-07
-5.872084917e-10
1.231330364e-07
-6.357732496e-10
1.235555643e-07
-6.727102381e-10
1.239822589e-07
-6.973656586e-10
1.244120008e-07
-7.091086427e-10
1.248435434e-07
-7.07343418e-10
1.25275519e-07
-6.915221746e-10
1.257064478e-07
-6.611583859e-10
1.261347473e-07
-6.158403405e-10
1.265587475e-07
-5.552445224e-10
1.269767192e-07
-4.79149086e-10
1.273868489e-07
-3.874477523e-10
-2.801432505e-10
1.277873001e-07
1.093639676e-07
1.506836158e-10
1.094665438e-07
4.519179514e-10
1.096336478e-07
7.402110567e-10
1.098578321e-07
1.006277116e-09
1.101298868e-07
1.243289369e-09
1.104404505e-07
1.447190104e-09
1.107807008e-07
1.615872739e-09
1.111424564e-07
1.74847657e-09
1.115182988e-07
1.845181313e-09
1.119018105e-07
1.907180411e-09
1.122877271e-07
1.936518639e-09
1.126719319e-07
1.935813109e-09
1.130513778e-07
1.908005004e-09
1.134240018e-07
1.856194132e-09
1.137886233e-07
1.783518672e-09
1.141448206e-07
1.693049851e-09
1.14492794e-07
1.587706179e-09
1.148332332e-07
1.470196915e-09
1.151671948e-07
1.34299213e-09
1.154959919e-07
1.208311229e-09
1.158210975e-07
1.068124819e-09
1.161440629e-07
9.241675776e-10
1.164664499e-07
7.779594754e-10
1.167897798e-07
6.308300678e-10
1.171154941e-07
4.8394713e-10
1.174449326e-07
3.383386959e-10
1.177792621e-07
1.949858322e-10
1.181195634e-07
5.468166354e-11
1.184667256e-07
-8.17359139e-11
1.188214911e-07
-2.135153538e-10
1.191844282e-07
-3.399028271e-10
1.195559491e-07
-4.601524482e-10
1.19936304e-07
-5.735200432e-10
1.203255888e-07
-6.792467051e-10
1.207237408e-07
-7.765563956e-10
1.21130537e-07
-8.646561738e-10
1.215455936e-07
-9.427380149e-10
1.219683671e-07
-1.009981954e-09
1.223981561e-07
-1.065562063e-09
1.228341011e-07
-1.108655211e-09
1.232751873e-07
-1.13845173e-09
1.237202463e-07
-1.15416765e-09
1.241679612e-07
-1.155058334e-09
1.246168722e-07
-1.140433232e-09
1.250653851e-07
-1.109671313e-09
1.255117814e-07
-1.062236699e-09
1.259542311e-07
-9.976941939e-10
1.26390806e-07
-9.157239402e-10
1.268194944e-07
-8.161361415e-10
-6.988811021e-10
1.272382324e-07
1.093572989e-07
1.233845312e-10
1.094396912e-07
3.695254785e-10
1.095745513e-07
6.053508112e-10
1.097569831e-07
8.238450412e-10
1.099806861e-07
1.019586129e-09
1.102389064e-07
1.188969491e-09
1.105249925e-07
1.32978635e-09
1.108326125e-07
1.440856252e-09
1.11155905e-07
1.521888378e-09
1.114896636e-07
1.573421502e-09
1.118294806e-07
1.59670132e-09
1.121717955e-07
1.593497987e-09
1.125138722e-07
1.56592808e-09
1.128537491e-07
1.516317064e-09
1.131901735e-07
1.447094198e-09
1.135225191e-07
1.360704202e-09
1.138506912e-07
1.259534011e-09
1.141750289e-07
1.145859144e-09
1.144962112e-07
1.021809708e-09
1.148151705e-07
8.893517445e-10
1.151330139e-07
7.50281287e-10
1.154509557e-07
6.062255351e-10
1.157702593e-07
4.586555885e-10
1.160921869e-07
3.08902201e-10
1.164179518e-07
1.581819596e-10
1.167488346e-07
7.455735444e-12
1.170857204e-07
-1.419002497e-10
1.174296721e-07
-2.892702579e-10
1.177815268e-07
-4.335908282e-10
1.181419917e-07
-5.739803485e-10
1.185116419e-07
-7.095531628e-10
1.188909107e-07
-8.394214072e-10
1.192800795e-07
-9.626888156e-10
1.196792761e-07
-1.078443283e-09
1.200884718e-07
-1.185752027e-09
1.205074764e-07
-1.283660719e-09
1.209359338e-07
-1.371195358e-09
1.213733183e-07
-1.447366333e-09
1.218189314e-07
-1.511175119e-09
1.222718999e-07
-1.56162364e-09
1.227311741e-07
-1.597726031e-09
1.23195529e-07
-1.618522583e-09
1.236635662e-07
-1.623095562e-09
1.241337193e-07
-1.610586386e-09
1.246042617e-07
-1.580213749e-09
1.250733172e-07
-1.53129223e-09
1.25538874e-07
-1.463250926e-09
1.259988015e-07
-1.37565136e-09
1.264508697e-07
-1.268204151e-09
-1.140782962e-09
1.268927717e-07
1.093523061e-07
1.010783773e-10
1.0941963e-07
3.022014122e-10
1.095302425e-07
4.947381922e-10
1.096808458e-07
6.73241594e-10
1.098670603e-07
8.333714003e-10
1.100839946e-07
9.720348949e-10
1.103266485e-07
1.087132132e-09
1.105901434e-07
1.177361084e-09
1.108698833e-07
1.242148125e-09
1.111617056e-07
1.281598894e-09
1.114619984e-07
1.296408202e-09
1.117677618e-07
1.287734349e-09
1.120766173e-07
1.257072389e-09
1.123867879e-07
1.206146368e-09
1.126970604e-07
1.136821532e-09
1.130067338e-07
1.051030702e-09
1.133155549e-07
9.507128629e-10
1.136236481e-07
8.37765799e-10
1.139314442e-07
7.14013457e-10
1.142396166e-07
5.811791397e-10
1.145490174e-07
4.408802516e-10
1.148606191e-07
2.946235532e-10
1.151754673e-07
1.438072226e-10
1.154946628e-07
-1.029358799e-11
1.158192625e-07
-1.66417976e-10
1.161502086e-07
-3.234904998e-10
1.164886657e-07
-4.803575138e-10
1.168354288e-07
-6.360335877e-10
1.171913266e-07
-7.894887595e-10
1.175570618e-07
-9.397156834e-10
1.1793322e-07
-1.085711462e-09
1.183202595e-07
-1.226460937e-09
1.187185002e-07
-1.36092959e-09
1.191281151e-07
-1.488058166e-09
1.195491216e-07
-1.606758402e-09
1.199813727e-07
-1.715911816e-09
1.20424549e-07
-1.814371644e-09
1.208781502e-07
-1.900967514e-09
1.21341488e-07
-1.974512932e-09
1.2181368e-07
-2.033815717e-09
1.222936452e-07
-2.07769136e-09
1.227801015e-07
-2.104979064e-09
1.232715661e-07
-2.114560172e-09
1.237663581e-07
-2.105378528e-09
1.242626066e-07
-2.076462241e-09
1.247582607e-07
-2.026946197e-09
1.252511045e-07
-1.956094618e-09
1.257387763e-07
-1.86332298e-09
1.262187909e-07
-1.748218493e-09
-1.610558068e-09
1.266885662e-07
1.093484817e-07
8.259661099e-11
1.094042793e-07
2.464037669e-10
1.094962363e-07
4.027811253e-10
1.096220815e-07
5.473962458e-10
1.097787236e-07
6.767291253e-10
1.09962609e-07
7.881492439e-10
1.101700021e-07
8.797387877e-10
1.103971769e-07
9.501860389e-10
1.106405616e-07
9.98763081e-10
1.108968622e-07
1.025298084e-09
1.1116316e-07
1.030110114e-09
1.114369743e-07
1.013919858e-09
1.117162882e-07
9.777583086e-10
1.119995492e-07
9.2288525e-10
1.122856515e-07
8.507190696e-10
1.125739053e-07
7.627767522e-10
1.128639947e-07
6.606233116e-10
1.131559313e-07
5.458290152e-10
1.134499931e-07
4.1995144e-10
1.137466853e-07
2.844867144e-10
1.140466878e-07
1.40877506e-10
1.143508273e-07
-9.516177135e-12
1.146599781e-07
-1.653438749e-10
1.149750849e-07
-3.254005408e-10
1.152971353e-07
-4.884685696e-10
1.156270585e-07
-6.534138504e-10
1.159658156e-07
-8.191148038e-10
1.163142633e-07
-9.84481442e-10
1.166732061e-07
-1.148431641e-09
1.170433635e-07
-1.309873179e-09
1.174253532e-07
-1.467701185e-09
1.178196789e-07
-1.620786656e-09
1.182267171e-07
-1.76796779e-09
1.186467034e-07
-1.908044364e-09
1.19079719e-07
-2.039774062e-09
1.195256785e-07
-2.161871316e-09
1.19984316e-07
-2.273009167e-09
1.204551726e-07
-2.371824258e-09
1.209375846e-07
-2.456925098e-09
1.214306725e-07
-2.526903809e-09
1.219333323e-07
-2.580351375e-09
1.224442294e-07
-2.615876235e-09
1.229617951e-07
-2.632125974e-09
1.234842282e-07
-2.627811654e-09
1.240095002e-07
-2.6017342e-09
1.245353661e-07
-2.552812041e-09
1.250593807e-07
-2.480109047e-09
1.255789196e-07
-2.382861779e-09
1.260912063e-07
-2.260505042e-09
-2.112694601e-09
1.265933429e-07
1.093454855e-07
6.711107012e-11
1.093922562e-07
1.996330048e-10
1.094695386e-07
3.254987131e-10
1.095757522e-07
4.411825514e-10
1.097086983e-07
5.437828158e-10
1.098657924e-07
6.310550012e-10
1.100442546e-07
7.012764265e-10
1.102412559e-07
7.531844694e-10
1.104540386e-07
7.859802365e-10
1.106800178e-07
7.993186278e-10
1.109168652e-07
7.932625403e-10
1.111625659e-07
7.682190262e-10
1.11415451e-07
7.248730539e-10
1.116742092e-07
6.641268471e-10
1.119378826e-07
5.870454969e-10
1.122058511e-07
4.948081323e-10
1.124778041e-07
3.886700388e-10
1.127537218e-07
2.699110936e-10
1.13033776e-07
1.398969608e-10
1.133184252e-07
-1.62705885e-13
1.136082012e-07
-1.488987549e-10
1.139038225e-07
-3.05137654e-10
1.142061057e-07
-4.676273007e-10
1.145159033e-07
-6.351983833e-10
1.14834129e-07
-8.066944057e-10
1.15161695e-07
-9.809799962e-10
1.1549951e-07
-1.156929965e-09
1.158484489e-07
-1.333420411e-09
1.162093355e-07
-1.50931838e-09
1.165829296e-07
-1.683467215e-09
1.169699067e-07
-1.854678308e-09
1.17370842e-07
-2.021721912e-09
1.177861931e-07
-2.183318821e-09
1.182162829e-07
-2.338134205e-09
1.186612824e-07
-2.484773592e-09
1.191211924e-07
-2.62178133e-09
1.195958252e-07
-2.74764212e-09
1.200847868e-07
-2.860786058e-09
1.20587459e-07
-2.959597528e-09
1.211029832e-07
-3.042428233e-09
1.216302461e-07
-3.107614547e-09
1.221678689e-07
-3.153499149e-09
1.227141995e-07
-3.178456701e-09
1.232673109e-07
-3.18092309e-09
1.238250043e-07
-3.159427604e-09
1.243848193e-07
-3.112627114e-09
1.249440514e-07
-3.039341066e-09
1.254997755e-07
-2.938585918e-09
1.260488781e-07
-2.809607593e-09
-2.651910453e-09
1.26588094e-07
1.093430879e-07
5.402312443e-11
1.093826402e-07
1.600806904e-10
1.094481495e-07
2.599894129e-10
1.095385162e-07
3.508157443e-10
1.096521733e-07
4.301255464e-10
1.097872414e-07
4.959867931e-10
1.099416595e-07
5.468582274e-10
1.101132933e-07
5.815505231e-10
1.103000309e-07
5.992424933e-10
1.104998667e-07
5.994827572e-10
1.107109699e-07
5.821592251e-10
1.109317354e-07
5.474533327e-10
1.111608163e-07
4.957920402e-10
1.113971404e-07
4.278026231e-10
1.116399137e-07
3.442719591e-10
1.118886152e-07
2.461064501e-10
1.121429586e-07
1.343263164e-10
1.124030862e-07
9.783279755e-12
1.126689119e-07
-1.259289871e-10
1.129409385e-07
-2.72189661e-10
1.132197125e-07
-4.276729265e-10
1.135058629e-07
-5.912883417e-10
1.138001538e-07
-7.619183941e-10
1.141034103e-07
-9.38455106e-10
1.144165115e-07
-1.11979579e-09
1.147403671e-07
-1.304835691e-09
1.150758972e-07
-1.492460255e-09
1.154240119e-07
-1.681535128e-09
1.157855897e-07
-1.870896148e-09
1.161614607e-07
-2.059338254e-09
1.16552388e-07
-2.24560554e-09
1.169590479e-07
-2.428381713e-09
1.173820103e-07
-2.606281172e-09
1.178217177e-07
-2.777841664e-09
1.182784632e-07
-2.941519099e-09
1.187523667e-07
-3.095685003e-09
1.192433517e-07
-3.238627238e-09
1.1975112e-07
-3.368554638e-09
1.202751284e-07
-3.483606126e-09
1.208145648e-07
-3.581864844e-09
1.213683277e-07
-3.661377635e-09
1.219350084e-07
-3.72018006e-09
1.225128783e-07
-3.756326777e-09
1.230998819e-07
-3.767926841e-09
1.236936373e-07
-3.75318316e-09
1.24291445e-07
-3.710435028e-09
1.248903061e-07
-3.638202292e-09
1.254869495e-07
-3.535229341e-09
1.260778689e-07
-3.400526959e-09
-3.233409889e-09
1.266593683e-07
1.093411317e-07
4.289144103e-11
1.093747982e-07
1.264140807e-10
1.094306823e-07
2.041052531e-10
1.095080274e-07
2.734705878e-10
1.096057218e-07
3.324310699e-10
1.097224052e-07
3.793033165e-10
1.098565602e-07
4.127032152e-10
1.100065915e-07
4.315191339e-10
1.101709002e-07
4.349337959e-10
1.103479501e-07
4.224327909e-10
1.105363248e-07
3.937844865e-10
1.107347699e-07
3.490081442e-10
1.109422259e-07
2.883359085e-10
1.111578468e-07
2.121815415e-10
1.113810074e-07
1.211111218e-10
1.116113672e-07
1.574641401e-11
1.118486567e-07
-1.02963464e-10
1.120927886e-07
-2.34348894e-10
1.123442239e-07
-3.773645105e-10
1.126031787e-07
-5.311447803e-10
1.128701973e-07
-6.946918053e-10
1.131459155e-07
-8.670067892e-10
1.134310781e-07
-1.047081224e-09
1.137265152e-07
-1.233892425e-09
1.140331218e-07
-1.426402598e-09
1.143518383e-07
-1.623552317e-09
1.146836308e-07
-1.824252858e-09
1.150294731e-07
-2.027377416e-09
1.15390328e-07
-2.231751015e-09
1.15767129e-07
-2.436139235e-09
1.161607604e-07
-2.639236835e-09
1.165720354e-07
-2.839656693e-09
1.170016737e-07
-3.035919366e-09
1.174502759e-07
-3.226443921e-09
1.179182975e-07
-3.409540758e-09
1.184060195e-07
-3.583407114e-09
1.189135181e-07
-3.746126055e-09
1.194406332e-07
-3.895669873e-09
1.199869357e-07
-4.029908747e-09
1.205516961e-07
-4.146625481e-09
1.211338552e-07
-4.24353696e-09
1.217319977e-07
-4.318322733e-09
1.223443314e-07
-4.368660786e-09
1.229686743e-07
-4.392270105e-09
1.236024501e-07
-4.386959207e-09
1.242426943e-07
-4.350679425e-09
1.24886073e-07
-4.281581142e-09
1.255289142e-07
-4.178070582e-09
1.261672515e-07
-4.038864337e-09
-3.863038573e-09
1.267968802e-07
1.093395052e-07
3.338623323e-11
1.093682815e-07
9.7637723e-11
1.094161501e-07
1.562366097e-10
1.09482604e-07
2.0701662e-10
1.095668658e-07
2.48169213e-10
1.096679625e-07
2.782065721e-10
1.097847896e-07
2.958761568e-10
1.099161691e-07
3.001396654e-10
1.100609063e-07
2.901966133e-10
1.102178442e-07
2.654949329e-10
1.103859125e-07
2.257161792e-10
1.105641583e-07
1.707622484e-10
1.107517755e-07
1.007186307e-10
1.109481324e-07
1.582450863e-11
1.111527603e-07
-8.351705934e-11
1.113653316e-07
-1.968250885e-10
1.115858379e-07
-3.234700816e-10
1.118142902e-07
-4.628014716e-10
1.120509834e-07
-6.140579091e-10
1.122962888e-07
-7.764504548e-10
1.125507422e-07
-9.491455333e-10
1.128150053e-07
-1.131270189e-09
1.130898477e-07
-1.321923814e-09
1.133761311e-07
-1.520176127e-09
1.136747931e-07
-1.725064763e-09
1.139868311e-07
-1.935590409e-09
1.143132871e-07
-2.15070899e-09
1.146552315e-07
-2.369321805e-09
1.150137447e-07
-2.590264175e-09
1.153898985e-07
-2.812292952e-09
1.157847351e-07
-3.0340734e-09
1.161992443e-07
-3.254165923e-09
1.16634338e-07
-3.471013045e-09
1.170908214e-07
-3.682927311e-09
1.175693615e-07
-3.888080904e-09
1.180704523e-07
-4.084497922e-09
1.185943765e-07
-4.270050374e-09
1.191411657e-07
-4.442459111e-09
1.197105577e-07
-4.599300932e-09
1.203019551e-07
-4.738023062e-09
1.209143839e-07
-4.855966038e-09
1.215464566e-07
-4.950395799e-09
1.221963409e-07
-5.018545384e-09
1.228617365e-07
-5.057666061e-09
1.235398642e-07
-5.065087118e-09
1.242274675e-07
-5.038282874e-09
1.249208311e-07
-4.974944769e-09
1.256158159e-07
-4.873055398e-09
1.263079119e-07
-4.730960482e-09
-4.547434244e-09
1.269923074e-07
1.093381276e-07
2.525865025e-11
1.093627649e-07
7.300026876e-11
1.094038364e-07
1.151650528e-10
1.094610195e-07
1.49833502e-10
1.095337842e-07
1.754045187e-10
1.096214483e-07
1.90542503e-10
1.097232236e-07
1.941009406e-10
1.09838261e-07
1.851022883e-10
1.099656896e-07
1.627681577e-10
1.101046597e-07
1.265249098e-10
1.102543737e-07
7.600216277e-11
1.104141241e-07
1.101189188e-11
1.105833258e-07
-6.848321015e-11
1.107615175e-07
-1.623673568e-10
1.109483983e-07
-2.703980013e-10
1.111438005e-07
-3.922274971e-10
1.11347737e-07
-5.274068729e-10
1.115603482e-07
-6.754129425e-10
1.117819417e-07
-8.356517146e-10
1.120129622e-07
-1.007471165e-09
1.122539869e-07
-1.190170533e-09
1.125057188e-07
-1.383002353e-09
1.127689727e-07
-1.585177995e-09
1.130446646e-07
-1.795868311e-09
1.133338004e-07
-2.014200715e-09
1.136374631e-07
-2.239253282e-09
1.139568e-07
-2.470045945e-09
1.142930076e-07
-2.705529408e-09
1.146473157e-07
-2.944572263e-09
1.150209693e-07
-3.18594654e-09
1.154152079e-07
-3.428312004e-09
1.158312416e-07
-3.670199637e-09
1.162702234e-07
-3.909994805e-09
1.167332169e-07
-4.145920846e-09
1.1722116e-07
-4.376024006e-09
1.17734823e-07
-4.598160867e-09
1.182747622e-07
-4.809989631e-09
1.188412699e-07
-5.008966823e-09
1.194343199e-07
-5.192351156e-09
1.200535129e-07
-5.357216288e-09
1.206980206e-07
-5.500474043e-09
1.213665339e-07
-5.618909441e-09
1.220572168e-07
-5.70922851e-09
1.227676699e-07
-5.768119263e-09
1.23494908e-07
-5.792325304e-09
1.242353556e-07
-5.778730444e-09
1.249848625e-07
-5.724451608e-09
1.25738743e-07
-5.62693603e-09
1.264918396e-07
-5.484057335e-09
-5.294203942e-09
1.272386088e-07
1.093369387e-07
1.831992225e-11
1.093580081e-07
5.193074199e-11
1.093932095e-07
7.996359822e-11
1.094423592e-07
1.006837908e-10
1.095051181e-07
1.126457182e-10
1.095810308e-07
1.14629847e-10
1.096695509e-07
1.055809708e-10
1.097700832e-07
8.457006989e-11
1.098819749e-07
5.087666291e-11
1.100046336e-07
3.866242712e-12
1.101375271e-07
-5.689122269e-11
1.102801318e-07
-1.315928377e-10
1.104320384e-07
-2.203899233e-10
1.105929478e-07
-3.2327688e-10
1.107626882e-07
-4.401385379e-10
1.109412169e-07
-5.707564115e-10
1.111286305e-07
-7.148207029e-10
1.113251613e-07
-8.719440003e-10
1.115311796e-07
-1.041670184e-09
1.117471894e-07
-1.223481303e-09
1.119738238e-07
-1.416805188e-09
1.122118408e-07
-1.621019667e-09
1.12462118e-07
-1.835455391e-09
1.12725645e-07
-2.059395599e-09
1.130035164e-07
-2.292072295e-09
1.132969223e-07
-2.532659244e-09
1.136071383e-07
-2.780262006e-09
1.139355141e-07
-3.033905312e-09
1.142834599e-07
-3.29251808e-09
1.146524295e-07
-3.554916261e-09
1.150439012e-07
-3.819783688e-09
1.154593528e-07
-4.085651256e-09
1.15900233e-07
-4.350874966e-09
1.163679258e-07
-4.613613628e-09
1.168637091e-07
-4.871807283e-09
1.173887059e-07
-5.123157736e-09
1.179438291e-07
-5.365112835e-09
1.185297186e-07
-5.594856531e-09
1.191466742e-07
-5.809306986e-09
1.197945828e-07
-6.005125204e-09
1.204728451e-07
-6.178736574e-09
1.211803031e-07
-6.326367508e-09
1.219151736e-07
-6.444099027e-09
1.22674993e-07
-6.527938528e-09
1.234565778e-07
-6.573909885e-09
1.242560078e-07
-6.578160423e-09
1.250686376e-07
-6.53708142e-09
1.258891382e-07
-6.44743688e-09
1.267115736e-07
-6.30649321e-09
-6.112140446e-09
1.275295096e-07
1.093358916e-07
1.242832101e-11
1.093538301e-07
3.399207473e-11
1.093838811e-07
4.991260124e-11
1.094259702e-07
5.859470646e-11
1.094798997e-07
5.871627684e-11
1.095453689e-07
4.916073798e-11