/*--------------------------------*- C++ -*----------------------------------*\
| =========                 |                                                 |
| \\      /  F ield         | foam-extend: Open Source CFD                    |
|  \\    /   O peration     | Version:     4.1                                |
|   \\  /    A nd           | Web:         http://www.foam-extend.org         |
|    \\/     M anipulation  |                                                 |
\*---------------------------------------------------------------------------*/
FoamFile
{
    version     2.0;
    format      ascii;
    class       volVectorField;
    location    "160000";
    object      U;
}
// * * * * * * * * * * * * * * * * * * * * * * * * * * * * * * * * * * * * * //

dimensions      [0 1 -1 0 0 0 0];

internalField   nonuniform List<vector> 
15920
(
(0.0002132413295 5.122253322e-06 0)
(0.000205847291 1.131266429e-05 0)
(0.0001957219222 1.373200531e-05 0)
(0.0001821777734 1.42145993e-05 0)
(0.0001677537028 1.376598144e-05 0)
(0.0001541042074 1.269401986e-05 0)
(0.0001414944991 1.118382061e-05 0)
(0.0001298446633 9.460063673e-06 0)
(0.0001192299431 7.72153184e-06 0)
(0.0001097717603 6.095367708e-06 0)
(0.0001014961013 4.650034078e-06 0)
(9.434185885e-05 3.417290022e-06 0)
(8.821616124e-05 2.403296613e-06 0)
(8.301981461e-05 1.595523524e-06 0)
(7.864988043e-05 9.704623227e-07 0)
(7.500160029e-05 5.002872222e-07 0)
(7.19736545e-05 1.570513232e-07 0)
(6.947248145e-05 -8.504203468e-08 0)
(6.741408241e-05 -2.485067371e-07 0)
(6.572437966e-05 -3.521901478e-07 0)
(6.433907285e-05 -4.113938661e-07 0)
(6.320320697e-05 -4.382639313e-07 0)
(6.227046292e-05 -4.422744243e-07 0)
(6.150228385e-05 -4.307261989e-07 0)
(6.08668911e-05 -4.091153612e-07 0)
(6.033830427e-05 -3.814734677e-07 0)
(5.989543659e-05 -3.506928492e-07 0)
(5.952127749e-05 -3.187983288e-07 0)
(5.92021597e-05 -2.871594148e-07 0)
(5.892711344e-05 -2.5665343e-07 0)
(5.868731062e-05 -2.277909523e-07 0)
(5.847559618e-05 -2.008128722e-07 0)
(5.82860992e-05 -1.75766179e-07 0)
(5.811391474e-05 -1.525634839e-07 0)
(5.79548475e-05 -1.310297199e-07 0)
(5.780520859e-05 -1.109383824e-07 0)
(5.766165769e-05 -9.203893196e-08 0)
(5.752108337e-05 -7.40766219e-08 0)
(5.7380516e-05 -5.680613338e-08 0)
(5.723706778e-05 -4.00006603e-08 0)
(5.708789505e-05 -2.345803772e-08 0)
(5.693017849e-05 -7.005069067e-09 0)
(5.67611174e-05 9.499358349e-09 0)
(5.657793503e-05 2.61622018e-08 0)
(5.637789266e-05 4.30552799e-08 0)
(5.615831058e-05 6.021547641e-08 0)
(5.591659408e-05 7.764617426e-08 0)
(5.56502627e-05 9.531897288e-08 0)
(5.535698199e-05 1.131760935e-07 0)
(5.503459637e-05 1.311337826e-07 0)
(0.0002201182831 5.650795876e-06 0)
(0.0002251673408 1.295853018e-05 0)
(0.000230336924 1.663171697e-05 0)
(0.0002340138002 1.857636513e-05 0)
(0.0002359192388 1.969576654e-05 0)
(0.0002362795745 2.011306178e-05 0)
(0.0002352753335 1.987345509e-05 0)
(0.0002330685999 1.911998993e-05 0)
(0.0002298900845 1.801087522e-05 0)
(0.0002260031039 1.666901988e-05 0)
(0.0002216455221 1.518997264e-05 0)
(0.0002170117016 1.365433729e-05 0)
(0.0002122587749 1.212849797e-05 0)
(0.0002075130612 1.066268516e-05 0)
(0.0002028718332 9.291569225e-06 0)
(0.000198405113 8.03662067e-06 0)
(0.0001941596587 6.908656398e-06 0)
(0.000190163794 5.910194613e-06 0)
(0.0001864317103 5.037660544e-06 0)
(0.0001829669898 4.283364852e-06 0)
(0.0001797655236 3.637138785e-06 0)
(0.0001768179051 3.087598589e-06 0)
(0.0001741112828 2.623078476e-06 0)
(0.0001716308453 2.232297648e-06 0)
(0.0001693608515 1.904729133e-06 0)
(0.0001672852998 1.630812998e-06 0)
(0.0001653883917 1.40208401e-06 0)
(0.0001636548539 1.211212941e-06 0)
(0.0001620701389 1.051974082e-06 0)
(0.0001606205293 9.191658388e-07 0)
(0.000159293171 8.085074697e-07 0)
(0.0001580760583 7.165262729e-07 0)
(0.0001569579878 6.404439952e-07 0)
(0.0001559284927 5.78068212e-07 0)
(0.0001549777667 5.276922835e-07 0)
(0.000154096586 4.880057032e-07 0)
(0.0001532762326 4.580153961e-07 0)
(0.000152508422 4.369777297e-07 0)
(0.0001517852388 4.243405025e-07 0)
(0.0001510990799 4.196937624e-07 0)
(0.000150442606 4.227282289e-07 0)
(0.0001498087038 4.332001895e-07 0)
(0.0001491904571 4.509019453e-07 0)
(0.0001485811287 4.756370986e-07 0)
(0.0001479741512 5.072000301e-07 0)
(0.0001473631277 5.453591036e-07 0)
(0.0001467418394 5.89844982e-07 0)
(0.000146104261 6.403410795e-07 0)
(0.0001454445826 6.964761628e-07 0)
(0.0001447572389 7.578196713e-07 0)
(0.0002187778908 1.479388245e-06 0)
(0.0002200322326 4.424849887e-06 0)
(0.0002226058171 7.075463738e-06 0)
(0.0002259355973 9.445639687e-06 0)
(0.0002294890992 1.155669881e-05 0)
(0.0002330337674 1.32921558e-05 0)
(0.0002364006107 1.455519988e-05 0)
(0.000239396523 1.534123215e-05 0)
(0.000241872996 1.56957565e-05 0)
(0.0002437621354 1.567677454e-05 0)
(0.0002450570989 1.534800768e-05 0)
(0.0002457868475 1.477844886e-05 0)
(0.0002460035209 1.403677267e-05 0)
(0.0002457742646 1.318488254e-05 0)
(0.0002451725653 1.22744253e-05 0)
(0.0002442710426 1.134616424e-05 0)
(0.0002431371247 1.04307083e-05 0)
(0.0002418310053 9.549720715e-06 0)
(0.0002404048173 8.717365164e-06 0)
(0.0002389024934 7.941844229e-06 0)
(0.0002373601312 7.226858138e-06 0)
(0.0002358067054 6.572869497e-06 0)
(0.0002342649545 5.978137346e-06 0)
(0.0002327522549 5.439543585e-06 0)
(0.0002312814387 4.953181872e-06 0)
(0.0002298616352 4.514792686e-06 0)
(0.0002284990102 4.120089189e-06 0)
(0.0002271973548 3.764978545e-06 0)
(0.0002259585626 3.445694225e-06 0)
(0.0002247830236 3.15886406e-06 0)
(0.0002236699443 2.901535276e-06 0)
(0.0002226176028 2.671170933e-06 0)
(0.0002216235473 2.465627828e-06 0)
(0.0002206847498 2.28312323e-06 0)
(0.0002197977236 2.122195723e-06 0)
(0.0002189586131 1.981663509e-06 0)
(0.0002181632604 1.860582398e-06 0)
(0.0002174072562 1.758204804e-06 0)
(0.0002166859777 1.673940518e-06 0)
(0.0002159946184 1.60731968e-06 0)
(0.0002153282116 1.557958405e-06 0)
(0.0002146816512 1.525527281e-06 0)
(0.0002140497109 1.509722665e-06 0)
(0.0002134270646 1.510240751e-06 0)
(0.0002128083064 1.526754474e-06 0)
(0.0002121879763 1.558893021e-06 0)
(0.0002115605854 1.60622233e-06 0)
(0.0002109206428 1.668229558e-06 0)
(0.0002102626868 1.744311364e-06 0)
(0.0002095813191 1.833765163e-06 0)
(0.0002187698082 1.500354975e-06 0)
(0.0002194913438 4.364557216e-06 0)
(0.0002207575556 6.791622705e-06 0)
(0.0002223850161 8.668844805e-06 0)
(0.00022421601 1.009077126e-05 0)
(0.000226218026 1.116071262e-05 0)
(0.0002283861193 1.192625748e-05 0)
(0.0002306637718 1.241985037e-05 0)
(0.0002329634721 1.267858208e-05 0)
(0.0002352062704 1.273757152e-05 0)
(0.0002373313593 1.262645213e-05 0)
(0.0002392915621 1.237270048e-05 0)
(0.0002410525523 1.200379101e-05 0)
(0.0002425945789 1.154630756e-05 0)
(0.0002439118707 1.102469853e-05 0)
(0.0002450097941 1.046071116e-05 0)
(0.0002459016157 9.873180574e-06 0)
(0.0002466057429 9.277871528e-06 0)
(0.0002471434704 8.687427268e-06 0)
(0.0002475371503 8.111512749e-06 0)
(0.0002478088103 7.557122691e-06 0)
(0.0002479792224 7.028973741e-06 0)
(0.0002480673476 6.529918698e-06 0)
(0.0002480900514 6.061340704e-06 0)
(0.0002480620262 5.623558662e-06 0)
(0.0002479958646 5.216168789e-06 0)
(0.0002479022009 4.838301768e-06 0)
(0.0002477898745 4.488820338e-06 0)
(0.0002476661077 4.166472461e-06 0)
(0.0002475366887 3.870005547e-06 0)
(0.0002474061481 3.598246014e-06 0)
(0.0002472779178 3.350150221e-06 0)
(0.0002471544701 3.124832722e-06 0)
(0.0002470374388 2.921577156e-06 0)
(0.0002469277208 2.73983429e-06 0)
(0.000246825562 2.579210672e-06 0)
(0.00024673063 2.439450602e-06 0)
(0.0002466420737 2.320413977e-06 0)
(0.0002465585745 2.222051515e-06 0)
(0.0002464783893 2.144378364e-06 0)
(0.0002463993881 2.087447269e-06 0)
(0.0002463190878 2.051322045e-06 0)
(0.0002462346835 2.03605178e-06 0)
(0.0002461430788 2.041646095e-06 0)
(0.0002460409163 2.068051793e-06 0)
(0.0002459246061 2.115131299e-06 0)
(0.0002457903571 2.182641853e-06 0)
(0.000245634212 2.270217867e-06 0)
(0.0002454520834 2.377356166e-06 0)
(0.0002452397906 2.503405015e-06 0)
(0.0002187106886 1.051531652e-06 0)
(0.0002191111606 3.057243201e-06 0)
(0.0002199153988 4.841183199e-06 0)
(0.0002210415806 6.344613274e-06 0)
(0.0002223558737 7.579692035e-06 0)
(0.0002237765699 8.571007313e-06 0)
(0.0002252695654 9.32619098e-06 0)
(0.0002268072904 9.852245056e-06 0)
(0.0002283574782 1.016944007e-05 0)
(0.0002298927783 1.030636287e-05 0)
(0.0002313944593 1.029174307e-05 0)
(0.0002328484017 1.015212504e-05 0)
(0.0002342423105 9.912318157e-06 0)
(0.0002355662685 9.595219711e-06 0)
(0.0002368137913 9.22118336e-06 0)
(0.0002379818487 8.807720909e-06 0)
(0.0002390703126 8.369552204e-06 0)
(0.0002400814127 7.918768836e-06 0)
(0.0002410192656 7.465024403e-06 0)
(0.0002418893839 7.015774914e-06 0)
(0.0002426981719 6.576573457e-06 0)
(0.0002434524759 6.151387597e-06 0)
(0.0002441592245 5.742909119e-06 0)
(0.0002448251577 5.352840607e-06 0)
(0.0002454566348 4.982157529e-06 0)
(0.0002460595079 4.631325096e-06 0)
(0.0002466390497 4.300467463e-06 0)
(0.0002471999181 3.989502943e-06 0)
(0.0002477461491 3.698252578e-06 0)
(0.0002482811712 3.426522519e-06 0)
(0.0002488078307 3.174161202e-06 0)
(0.0002493284235 2.941096157e-06 0)
(0.000249844728 2.727354848e-06 0)
(0.0002503580381 2.533073081e-06 0)
(0.000250869194 2.358493769e-06 0)
(0.0002513786104 2.203957685e-06 0)
(0.000251886301 2.06988897e-06 0)
(0.0002523919011 1.956778335e-06 0)
(0.000252894686 1.865162636e-06 0)
(0.0002533935875 1.795602073e-06 0)
(0.0002538872102 1.748656159e-06 0)
(0.0002543738456 1.724858623e-06 0)
(0.000254851488 1.724692185e-06 0)
(0.0002553178493 1.748563991e-06 0)
(0.000255770376 1.796781698e-06 0)
(0.000256206267 1.869530461e-06 0)
(0.0002566224946 1.966852543e-06 0)
(0.0002570158269 2.088628391e-06 0)
(0.0002573828544 2.234559293e-06 0)
(0.0002577200186 2.4041567e-06 0)
(0.0002186950455 8.11612418e-07 0)
(0.0002189765086 2.399659035e-06 0)
(0.0002195600123 3.876383777e-06 0)
(0.0002204064711 5.177246232e-06 0)
(0.000221424227 6.275414397e-06 0)
(0.0002225437271 7.16884318e-06 0)
(0.0002237272292 7.861432926e-06 0)
(0.0002249472528 8.36023923e-06 0)
(0.0002261757617 8.679358806e-06 0)
(0.0002273881109 8.838903526e-06 0)
(0.0002285674402 8.86095516e-06 0)
(0.0002297037863 8.767272606e-06 0)
(0.0002307915041 8.57883474e-06 0)
(0.0002318279754 8.31549837e-06 0)
(0.0002328132128 7.99534476e-06 0)
(0.000233749351 7.634182178e-06 0)
(0.0002346399568 7.245411034e-06 0)
(0.0002354894587 6.840119839e-06 0)
(0.0002363027746 6.427268449e-06 0)
(0.0002370850464 6.01391415e-06 0)
(0.0002378414174 5.605471047e-06 0)
(0.0002385768518 5.205982904e-06 0)
(0.0002392960068 4.818386315e-06 0)
(0.0002400031498 4.444750238e-06 0)
(0.0002407021096 4.086487094e-06 0)
(0.0002413962544 3.744533379e-06 0)
(0.0002420884903 3.419499372e-06 0)
(0.000242781274 3.111789881e-06 0)
(0.0002434766321 2.821700583e-06 0)
(0.0002441761834 2.5494922e-06 0)
(0.0002448811635 2.295443243e-06 0)
(0.0002455924495 2.059885472e-06 0)
(0.000246310584 1.843224974e-06 0)
(0.0002470357959 1.645954655e-06 0)
(0.0002477680171 1.468659076e-06 0)
(0.0002485068968 1.312007582e-06 0)
(0.0002492518155 1.17673922e-06 0)
(0.0002500018952 1.063651488e-06 0)
(0.0002507560051 9.735827985e-07 0)
(0.0002515127673 9.073903033e-07 0)
(0.0002522705625 8.659263255e-07 0)
(0.0002530275355 8.500134807e-07 0)
(0.0002537816021 8.604183083e-07 0)
(0.0002545304582 8.978243978e-07 0)
(0.0002552715881 9.628060403e-07 0)
(0.0002560022756 1.055803015e-06 0)
(0.0002567196172 1.177096091e-06 0)
(0.0002574205388 1.326782986e-06 0)
(0.0002581018171 1.504745731e-06 0)
(0.0002587600966 1.710656465e-06 0)
(0.0002186864597 6.450337402e-07 0)
(0.0002188955918 1.912481122e-06 0)
(0.0002193292685 3.105939738e-06 0)
(0.000219969063 4.175320144e-06 0)
(0.0002207586973 5.094168166e-06 0)
(0.0002216505114 5.85628986e-06 0)
(0.0002226139931 6.463323144e-06 0)
(0.0002236250312 6.919303204e-06 0)
(0.0002246594691 7.231727362e-06 0)
(0.0002256949867 7.412256806e-06 0)
(0.0002267143273 7.475191361e-06 0)
(0.0002277057028 7.435750259e-06 0)
(0.0002286615333 7.309244094e-06 0)
(0.0002295774718 7.110655588e-06 0)
(0.0002304519782 6.854173028e-06 0)
(0.0002312859119 6.552757787e-06 0)
(0.0002320819548 6.21790189e-06 0)
(0.0002328440218 5.859559558e-06 0)
(0.0002335767866 5.486172456e-06 0)
(0.0002342853167 5.10474852e-06 0)
(0.0002349747823 4.72098547e-06 0)
(0.0002356502288 4.339428055e-06 0)
(0.0002363164131 3.963641206e-06 0)
(0.0002369776974 3.596383681e-06 0)
(0.0002376379874 3.23977329e-06 0)
(0.000238300704 2.895437813e-06 0)
(0.0002389687778 2.564648273e-06 0)
(0.0002396446599 2.248426441e-06 0)
(0.0002403303445 1.947638674e-06 0)
(0.0002410273938 1.663068838e-06 0)
(0.0002417369635 1.395475064e-06 0)
(0.000242459831 1.145633369e-06 0)
(0.0002431964226 9.143580027e-07 0)
(0.0002439468426 7.025199314e-07 0)
(0.0002447108841 5.110554149e-07 0)
(0.0002454880787 3.409692561e-07 0)
(0.0002462776465 1.93330663e-07 0)
(0.0002470785364 6.925605514e-08 0)
(0.0002478894428 -3.010939038e-08 0)
(0.0002487088151 -1.036115007e-07 0)
(0.0002495348665 -1.501105593e-07 0)
(0.0002503655825 -1.685070112e-07 0)
(0.0002511987296 -1.577683514e-07 0)
(0.0002520318651 -1.169572323e-07 0)
(0.00025286235 -4.526000018e-08 0)
(0.0002536873614 5.798545259e-08 0)
(0.0002545039098 1.932644376e-07 0)
(0.0002553088437 3.608620316e-07 0)
(0.0002560988602 5.608479173e-07 0)
(0.0002568705628 7.930304535e-07 0)
(0.0002186801042 5.187765023e-07 0)
(0.0002188390799 1.53901379e-06 0)
(0.0002191709463 2.507480128e-06 0)
(0.000219667809 3.389349641e-06 0)
(0.0002202934149 4.162535163e-06 0)
(0.0002210141337 4.817369303e-06 0)
(0.0002218057262 5.350654895e-06 0)
(0.000222648127 5.762379248e-06 0)
(0.0002235219826 6.055803888e-06 0)
(0.0002244094638 6.23779356e-06 0)
(0.0002252960215 6.317923546e-06 0)
(0.0002261708229 6.307170556e-06 0)
(0.000227026186 6.217040926e-06 0)
(0.0002278570044 6.059102971e-06 0)
(0.0002286604498 5.844614793e-06 0)
(0.000229435721 5.584175366e-06 0)
(0.0002301836859 5.287473075e-06 0)
(0.0002309064733 4.963157857e-06 0)
(0.000231607105 4.61880288e-06 0)
(0.0002322891902 4.260922189e-06 0)
(0.000232956669 3.895030164e-06 0)
(0.0002336135983 3.525733762e-06 0)
(0.0002342639805 3.156845502e-06 0)
(0.0002349116365 2.791504497e-06 0)
(0.0002355601156 2.432297395e-06 0)
(0.000236212637 2.081373114e-06 0)
(0.0002368720478 1.7405573e-06 0)
(0.0002375408073 1.411410847e-06 0)
(0.0002382209877 1.095343175e-06 0)
(0.0002389142763 7.936628267e-07 0)
(0.0002396219795 5.076211794e-07 0)
(0.0002403450729 2.384565194e-07 0)
(0.0002410841518 -1.256858983e-08 0)
(0.0002418394609 -2.441537705e-07 0)
(0.0002426109247 -4.549570906e-07 0)
(0.0002433981226 -6.43591225e-07 0)
(0.0002442003629 -8.086205472e-07 0)
(0.0002450166622 -9.48577498e-07 0)
(0.000245845746 -1.061979915e-06 0)
(0.0002466860554 -1.147349884e-06 0)
(0.0002475357529 -1.203237082e-06 0)
(0.0002483927307 -1.228245204e-06 0)
(0.0002492546203 -1.221060219e-06 0)
(0.0002501188045 -1.180480375e-06 0)
(0.000250982432 -1.10544717e-06 0)
(0.0002518424363 -9.950762557e-07 0)
(0.0002526955565 -8.486867083e-07 0)
(0.0002535383773 -6.658275204e-07 0)
(0.0002543673653 -4.462872536e-07 0)
(0.0002551788673 -1.901490661e-07 0)
(0.0002186757994 4.213869331e-07 0)
(0.0002188007438 1.250751808e-06 0)
(0.0002190625333 2.042379247e-06 0)
(0.0002194578057 2.770722891e-06 0)
(0.0002199616778 3.4173148e-06 0)
(0.0002205502146 3.971643403e-06 0)
(0.0002212052443 4.428530966e-06 0)
(0.0002219110923 4.786225629e-06 0)
(0.000222652551 5.045964494e-06 0)
(0.0002234154531 5.21183953e-06 0)
(0.0002241877999 5.290202728e-06 0)
(0.0002249601632 5.288823106e-06 0)
(0.0002257254739 5.216213952e-06 0)
(0.0002264787057 5.081201845e-06 0)
(0.0002272166614 4.892601774e-06 0)
(0.0002279377849 4.65892934e-06 0)
(0.0002286419209 4.388175229e-06 0)
(0.0002293300332 4.087665837e-06 0)
(0.0002300039358 3.763997417e-06 0)
(0.0002306660563 3.423020165e-06 0)
(0.0002313192307 3.069858189e-06 0)
(0.0002319665264 2.708956674e-06 0)
(0.0002326110927 2.34414919e-06 0)
(0.0002332560411 1.978736848e-06 0)
(0.0002339043539 1.615572269e-06 0)
(0.0002345588288 1.257125237e-06 0)
(0.0002352219885 9.05666866e-07 0)
(0.0002358960757 5.63133563e-07 0)
(0.0002365830727 2.313473138e-07 0)
(0.0002372846197 -8.794382911e-08 0)
(0.0002380020298 -3.930498197e-07 0)
(0.000238736266 -6.823053209e-07 0)
(0.000239487996 -9.5403139e-07 0)
(0.0002402575719 -1.20651948e-06 0)
(0.0002410450248 -1.43802354e-06 0)
(0.0002418500675 -1.646758893e-06 0)
(0.0002426720935 -1.830908914e-06 0)
(0.000243510176 -1.988629731e-06 0)
(0.0002443630699 -2.118064106e-06 0)
(0.0002452292135 -2.217362484e-06 0)
(0.0002461067315 -2.284707815e-06 0)
(0.0002469934397 -2.31834417e-06 0)
(0.0002478868513 -2.316609056e-06 0)
(0.0002487841869 -2.277968012e-06 0)
(0.0002496823885 -2.201050194e-06 0)
(0.0002505781388 -2.084684207e-06 0)
(0.0002514678833 -1.927934212e-06 0)
(0.0002523478569 -1.730135251e-06 0)
(0.0002532141132 -1.490936758e-06 0)
(0.0002540625632 -1.210304352e-06 0)
(0.0002186727079 3.442732895e-07 0)
(0.0002187731259 1.021623499e-06 0)
(0.0002189839026 1.669633609e-06 0)
(0.0002193039026 2.269004516e-06 0)
(0.0002197155046 2.804908029e-06 0)
(0.0002202016453 3.267858541e-06 0)
(0.0002207490541 3.652343988e-06 0)
(0.0002213457344 3.955695996e-06 0)
(0.000221979703 4.177691064e-06 0)
(0.0002226396063 4.320364318e-06 0)
(0.0002233155953 4.38763673e-06 0)
(0.0002239996559 4.384785612e-06 0)
(0.0002246855364 4.317951686e-06 0)
(0.0002253685845 4.193766e-06 0)
(0.0002260456162 4.019061344e-06 0)
(0.0002267147855 3.800628859e-06 0)
(0.0002273754167 3.545021367e-06 0)
(0.0002280278065 3.258415244e-06 0)
(0.0002286730237 2.946527444e-06 0)
(0.0002293127253 2.614573449e-06 0)
(0.0002299489916 2.267258962e-06 0)
(0.0002305841794 1.908797206e-06 0)
(0.0002312207963 1.542944394e-06 0)
(0.0002318613962 1.173043575e-06 0)
(0.0002325084721 8.021015337e-07 0)
(0.000233164519 4.328292845e-07 0)
(0.0002338317525 6.761282809e-08 0)
(0.0002345121124 -2.911863365e-07 0)
(0.0002352074774 -6.4138543e-07 0)
(0.0002359194263 -9.808986083e-07 0)
(0.0002366492424 -1.307664392e-06 0)
(0.0002373979328 -1.619625747e-06 0)
(0.0002381662144 -1.914717416e-06 0)
(0.0002389544999 -2.190844609e-06 0)
(0.0002397628899 -2.445869285e-06 0)
(0.0002405911672 -2.677607499e-06 0)
(0.0002414387876 -2.883834e-06 0)
(0.0002423048714 -3.062291298e-06 0)
(0.0002431881962 -3.210705696e-06 0)
(0.0002440871915 -3.326809675e-06 0)
(0.0002449999354 -3.408369737e-06 0)
(0.0002459241532 -3.453219326e-06 0)
(0.0002468572207 -3.459295582e-06 0)
(0.0002477961709 -3.424678755e-06 0)
(0.0002487377076 -3.347633565e-06 0)
(0.0002496782231 -3.226651602e-06 0)
(0.000250613823 -3.06049354e-06 0)
(0.0002515403566 -2.848229215e-06 0)
(0.0002524534542 -2.589273914e-06 0)
(0.0002533485674 -2.28341724e-06 0)
(0.0002186703879 2.818910193e-07 0)
(0.0002187524619 8.357888576e-07 0)
(0.0002189250143 1.365811493e-06 0)
(0.0002191881308 1.857106978e-06 0)
(0.0002195289762 2.297838399e-06 0)
(0.0002199351704 2.67979455e-06 0)
(0.0002203970245 2.997581811e-06 0)
(0.0002209054482 3.24801519e-06 0)
(0.0002214510842 3.429913586e-06 0)
(0.0002220249192 3.543964753e-06 0)
(0.000222618995 3.592458746e-06 0)
(0.0002232266652 3.578918585e-06 0)
(0.0002238425743 3.507734969e-06 0)
(0.0002244625866 3.383863822e-06 0)
(0.0002250837261 3.21258284e-06 0)
(0.0002257040995 2.99928826e-06 0)
(0.0002263227831 2.749327788e-06 0)
(0.0002269396851 2.467874154e-06 0)
(0.0002275553984 2.159840419e-06 0)
(0.0002281710612 1.829823673e-06 0)
(0.0002287882308 1.482083777e-06 0)
(0.0002294087642 1.120533527e-06 0)
(0.0002300347026 7.487768886e-07 0)
(0.0002306682069 3.701082378e-07 0)
(0.0002313114695 -1.244764765e-08 0)
(0.0002319665111 -3.960469066e-07 0)
(0.0002326354093 -7.781198255e-07 0)
(0.0002333201638 -1.156080722e-06 0)
(0.0002340224222 -1.527472095e-06 0)
(0.0002347436929 -1.88991303e-06 0)
(0.0002354852828 -2.241032419e-06 0)
(0.0002362482406 -2.578443718e-06 0)
(0.0002370333475 -2.899727303e-06 0)
(0.0002378411011 -3.202413897e-06 0)
(0.0002386716963 -3.483974256e-06 0)
(0.0002395250081 -3.741817e-06 0)
(0.0002404005741 -3.973293523e-06 0)
(0.0002412975787 -4.175709032e-06 0)
(0.0002422148371 -4.346340252e-06 0)
(0.0002431507821 -4.482460239e-06 0)
(0.0002441034529 -4.581369756e-06 0)
(0.0002450704882 -4.640434425e-06 0)
(0.0002460491234 -4.657126975e-06 0)
(0.0002470361937 -4.629073738e-06 0)
(0.0002480281447 -4.554104058e-06 0)
(0.0002490210493 -4.430301049e-06 0)
(0.0002500106344 -4.256052216e-06 0)
(0.0002509923134 -4.030098507e-06 0)
(0.0002519612282 -3.751580286e-06 0)
(0.0002529122985 -3.420077211e-06 0)
(0.0002186686079 2.306264595e-07 0)
(0.0002187366335 6.827833635e-07 0)
(0.0002188798591 1.114721246e-06 0)
(0.0002190990322 1.514729037e-06 0)
(0.0002193845653 1.873232025e-06 0)
(0.0002197273244 2.183201894e-06 0)
(0.0002201202447 2.439634895e-06 0)
(0.0002205565253 2.63922703e-06 0)
(0.000221028949 2.780296593e-06 0)
(0.0002215304292 2.862697004e-06 0)
(0.0002220546028 2.887617853e-06 0)
(0.0002225960423 2.85732003e-06 0)
(0.0002231502612 2.774872266e-06 0)
(0.0002237136952 2.643921322e-06 0)
(0.000224283689 2.468497304e-06 0)
(0.0002248584582 2.252847789e-06 0)
(0.0002254370174 2.00129926e-06 0)
(0.0002260190869 1.718147253e-06 0)
(0.0002266049838 1.407586682e-06 0)
(0.0002271955208 1.073611362e-06 0)
(0.0002277919018 7.200557025e-07 0)
(0.0002283956531 3.505117575e-07 0)
(0.0002290085138 -3.164980074e-08 0)
(0.0002296323175 -4.232351272e-07 0)
(0.000230268996 -8.212441323e-07 0)
(0.0002309204917 -1.22281297e-06 0)
(0.0002315887085 -1.625108332e-06 0)
(0.0002322754742 -2.025499584e-06 0)
(0.0002329824614 -2.421355014e-06 0)
(0.0002337111969 -2.810036416e-06 0)
(0.000234463027 -3.188895441e-06 0)
(0.0002352390805 -3.555241628e-06 0)
(0.0002360402436 -3.906320882e-06 0)
(0.0002368671351 -4.239301942e-06 0)
(0.0002377200784 -4.551267579e-06 0)
(0.000238599076 -4.839211985e-06 0)
(0.0002395037829 -5.100045411e-06 0)
(0.0002404334809 -5.330606256e-06 0)
(0.0002413870538 -5.527680893e-06 0)
(0.000242362964 -5.688031466e-06 0)
(0.0002433592331 -5.808431499e-06 0)
(0.0002443734258 -5.885708922e-06 0)
(0.0002454026414 -5.916795875e-06 0)
(0.0002464435102 -5.898784172e-06 0)
(0.0002474922006 -5.828984923e-06 0)
(0.0002485444343 -5.704990503e-06 0)
(0.0002495955139 -5.524736849e-06 0)
(0.0002506403599 -5.286563931e-06 0)
(0.0002516735588 -4.989272199e-06 0)
(0.0002526894206 -4.632172445e-06 0)
(0.0002186672116 1.879584806e-07 0)
(0.0002187242278 5.55208227e-07 0)
(0.0002188444343 9.046865664e-07 0)
(0.000219028937 1.226943647e-06 0)
(0.0002192704447 1.514125608e-06 0)
(0.0002195621373 1.760237849e-06 0)
(0.0002198988738 1.960765496e-06 0)
(0.0002202756124 2.112487718e-06 0)
(0.0002206868322 2.213471798e-06 0)
(0.0002211270019 2.263032199e-06 0)
(0.0002215910818 2.2615926e-06 0)
(0.0002220747042 2.210498144e-06 0)
(0.0002225741908 2.111826435e-06 0)
(0.0002230865593 1.968215672e-06 0)
(0.0002236095368 1.782711681e-06 0)
(0.0002241415489 1.558633841e-06 0)
(0.000224681678 1.299461798e-06 0)
(0.0002252296137 1.008715556e-06 0)
(0.0002257855208 6.900442588e-07 0)
(0.0002263500452 3.468513538e-07 0)
(0.0002269242177 -1.750000915e-08 0)
(0.0002275092963 -3.997074556e-07 0)
(0.0002281068124 -7.966219365e-07 0)
(0.0002287184688 -1.205195288e-06 0)
(0.0002293460518 -1.622471421e-06 0)
(0.000229991395 -2.045595494e-06 0)
(0.0002306563295 -2.471751251e-06 0)
(0.0002313426485 -2.898166477e-06 0)
(0.0002320520611 -3.322055596e-06 0)
(0.0002327861592 -3.740596129e-06 0)
(0.0002335463867 -4.150909557e-06 0)
(0.0002343340031 -4.550036765e-06 0)
(0.0002351500491 -4.934918033e-06 0)
(0.0002359953136 -5.302378534e-06 0)
(0.0002368702992 -5.649118935e-06 0)
(0.0002377751866 -5.971712291e-06 0)
(0.000238709798 -6.266608559e-06 0)
(0.0002396735612 -6.530147418e-06 0)
(0.0002406654731 -6.75857998e-06 0)
(0.0002416840653 -6.94809989e-06 0)
(0.0002427273738 -7.094884119e-06 0)
(0.0002437929127 -7.195143172e-06 0)
(0.0002448776554 -7.245180009e-06 0)
(0.0002459780252 -7.241456484e-06 0)
(0.0002470898955 -7.18066581e-06 0)
(0.0002482086033 -7.059808909e-06 0)
(0.0002493289758 -6.876271991e-06 0)
(0.0002504453724 -6.627902401e-06 0)
(0.0002515517397 -6.313079816e-06 0)
(0.0002526416805 -5.930779648e-06 0)
(0.000218666093 1.520831825e-07 0)
(0.0002187142997 4.477622537e-07 0)
(0.000218816067 7.272967606e-07 0)
(0.0002189726892 9.828941166e-07 0)
(0.0002191785494 1.208009308e-06 0)
(0.0002194285081 1.397499195e-06 0)
(0.0002197188356 1.547320674e-06 0)
(0.0002200458272 1.654417531e-06 0)
(0.0002204052954 1.716754443e-06 0)
(0.0002207929629 1.73331153e-06 0)
(0.0002212048864 1.703992259e-06 0)
(0.0002216376095 1.629488678e-06 0)
(0.0002220881831 1.511142636e-06 0)
(0.0002225541823 1.350818426e-06 0)
(0.0002230337337 1.150786457e-06 0)
(0.0002235255239 9.136124495e-07 0)
(0.000224028745 6.421208219e-07 0)
(0.0002245432581 3.392149396e-07 0)
(0.0002250691738 7.74774817e-09 0)
(0.000225606891 -3.491692059e-07 0)
(0.0002261574416 -7.28563948e-07 0)
(0.000226722059 -1.127478797e-06 0)
(0.0002273021468 -1.542989118e-06 0)
(0.0002278993 -1.972237117e-06 0)
(0.0002285152345 -2.412399209e-06 0)
(0.0002291517484 -2.860673215e-06 0)
(0.0002298106826 -3.314250676e-06 0)
(0.0002304938785 -3.77029742e-06 0)
(0.0002312031346 -4.22592794e-06 0)
(0.0002319401684 -4.678177518e-06 0)
(0.000232706582 -5.123978803e-06 0)
(0.0002335038241 -5.560138795e-06 0)
(0.0002343331508 -5.98331775e-06 0)
(0.0002351955847 -6.390012527e-06 0)
(0.0002360918723 -6.776545514e-06 0)
(0.0002370224381 -7.139060135e-06 0)
(0.0002379873377 -7.473524236e-06 0)
(0.0002389862085 -7.775742654e-06 0)
(0.0002400182218 -8.041380129e-06 0)
(0.0002410820342 -8.265995549e-06 0)
(0.0002421757434 -8.445088194e-06 0)
(0.0002432968489 -8.574156041e-06 0)
(0.0002444422209 -8.64876558e-06 0)
(0.00024560808 -8.664631951e-06 0)
(0.0002467899899 -8.617707651e-06 0)
(0.0002479828665 -8.50427734e-06 0)
(0.0002491810035 -8.321055363e-06 0)
(0.0002503781186 -8.065282066e-06 0)
(0.0002515674167 -7.734814837e-06 0)
(0.0002527416736 -7.328209657e-06 0)
(0.0002186651795 1.216862013e-07 0)
(0.0002187061988 3.565742084e-07 0)
(0.0002187929099 5.763678709e-07 0)
(0.0002189266934 7.745017788e-07 0)
(0.0002191031843 9.454259734e-07 0)
(0.0002193184873 1.084680527e-06 0)
(0.0002195699169 1.188641525e-06 0)
(0.000219854786 1.254446351e-06 0)
(0.0002201699548 1.280045362e-06 0)
(0.0002205121544 1.264217099e-06 0)
(0.0002208783422 1.206508498e-06 0)
(0.0002212658296 1.107141356e-06 0)
(0.000221672304 9.669096874e-07 0)
(0.0002220958537 7.870824251e-07 0)
(0.0002225349939 5.693214776e-07 0)
(0.000222988754 3.155935459e-07 0)
(0.0002234565515 2.805612867e-08 0)
(0.0002239380222 -2.908720522e-07 0)
(0.0002244335077 -6.388251001e-07 0)
(0.0002249437373 -1.0131413e-06 0)
(0.0002254694918 -1.411176749e-06 0)
(0.0002260119364 -1.830316738e-06 0)
(0.0002265724709 -2.267916078e-06 0)
(0.0002271526773 -2.72131695e-06 0)
(0.0002277542912 -3.187839309e-06 0)
(0.0002283791595 -3.664767756e-06 0)
(0.0002290291982 -4.149335299e-06 0)
(0.0002297063559 -4.638702869e-06 0)
(0.0002304125779 -5.129934174e-06 0)
(0.00023114977 -5.619967605e-06 0)
(0.0002319197595 -6.105589615e-06 0)
(0.0002327242542 -6.583409334e-06 0)
(0.0002335647983 -7.049835013e-06 0)
(0.0002344427242 -7.501054094e-06 0)
(0.000235359101 -7.933018442e-06 0)
(0.0002363146795 -8.341436218e-06 0)
(0.0002373098322 -8.721772209e-06 0)
(0.000238344491 -9.069258539e-06 0)
(0.0002394180831 -9.378917553e-06 0)
(0.0002405294664 -9.645598426e-06 0)
(0.0002416768678 -9.864028738e-06 0)
(0.000242857827 -1.002888164e-05 0)
(0.000244069148 -1.013485843e-05 0)
(0.0002453068653 -1.017678541e-05 0)
(0.0002465662244 -1.014972288e-05 0)
(0.0002478416833 -1.004908353e-05 0)
(0.0002491269361 -9.870756109e-06 0)
(0.0002504149629 -9.611229262e-06 0)
(0.000251698105 -9.267709359e-06 0)
(0.0002529681641 -8.838226506e-06 0)
(0.0002186644196 9.57934614e-08 0)
(0.0002186994637 2.787690953e-07 0)
(0.0002187736497 4.472844195e-07 0)
(0.0002188883815 5.9569024e-07 0)
(0.0002190402519 7.191960067e-07 0)
(0.0002192263049 8.138831837e-07 0)
(0.0002194446344 8.764818792e-07 0)
(0.0002196933279 9.043173359e-07 0)
(0.0002199700632 8.953709654e-07 0)
(0.0002202723752 8.483066421e-07 0)
(0.0002205979608 7.624311731e-07 0)
(0.000220944784 6.37622498e-07 0)
(0.0002213110863 4.742479576e-07 0)
(0.0002216954207 2.731097089e-07 0)
(0.0002220966827 3.537019049e-08 0)
(0.00022251407 -2.374997972e-07 0)
(0.0002229472302 -5.438466753e-07 0)
(0.0002233961835 -8.817588568e-07 0)
(0.0002238612446 -1.249070012e-06 0)
(0.0002243430781 -1.643700375e-06 0)
(0.0002248426032 -2.063394428e-06 0)
(0.0002253610186 -2.505820251e-06 0)
(0.0002258997654 -2.968590583e-06 0)
(0.0002264604844 -3.449258247e-06 0)
(0.0002270449828 -3.945313658e-06 0)
(0.0002276552031 -4.454174159e-06 0)
(0.0002282931923 -4.973164269e-06 0)
(0.0002289610709 -5.499491036e-06 0)
(0.000229660998 -6.030217055e-06 0)
(0.0002303951353 -6.562231458e-06 0)
(0.0002311656066 -7.092220049e-06 0)
(0.000231974455 -7.616635527e-06 0)
(0.0002328235943 -8.13166885e-06 0)
(0.0002337147553 -8.633223353e-06 0)
(0.0002346494257 -9.11689357e-06 0)
(0.0002356287836 -9.577950812e-06 0)
(0.0002366536245 -1.001133786e-05 0)
(0.0002377242829 -1.041167534e-05 0)
(0.0002388405495 -1.077328243e-05 0)
(0.0002400015863 -1.10902142e-05 0)
(0.0002412058431 -1.135631779e-05 0)
(0.0002424509787 -1.156530865e-05 0)
(0.0002437337906 -1.17108675e-05 0)
(0.0002450501595 -1.178675716e-05 0)
(0.0002463950143 -1.178695692e-05 0)
(0.0002477623208 -1.17058111e-05 0)
(0.0002491451007 -1.153818704e-05 0)
(0.000250535484 -1.127963577e-05 0)
(0.0002519247975 -1.092654672e-05 0)
(0.0002533036862 -1.047628751e-05 0)
(0.0002186637756 7.367382109e-08 0)
(0.0002186937601 2.12186427e-07 0)
(0.0002187573338 3.365668229e-07 0)
(0.0002188558857 4.418527677e-07 0)
(0.0002189867553 5.238333178e-07 0)
(0.0002191477034 5.790164556e-07 0)
(0.0002193374092 6.044301618e-07 0)