/*--------------------------------*- C++ -*----------------------------------*\
| =========                 |                                                 |
| \\      /  F ield         | foam-extend: Open Source CFD                    |
|  \\    /   O peration     | Version:     4.1                                |
|   \\  /    A nd           | Web:         http://www.foam-extend.org         |
|    \\/     M anipulation  |                                                 |
\*---------------------------------------------------------------------------*/
FoamFile
{
    version     2.0;
    format      ascii;
    class       volVectorField;
    location    "160000";
    object      vorticity;
}
// * * * * * * * * * * * * * * * * * * * * * * * * * * * * * * * * * * * * * //

dimensions      [0 0 -1 0 0 0 0];

internalField   nonuniform List<vector> 
15920
(
(0 -0 -0.00825631931)
(0 -0 -0.008405048836)
(0 -0 -0.008448628549)
(0 -0 -0.00832298207)
(0 -0 -0.008111473317)
(0 -0 -0.007872229659)
(0 -0 -0.007616245556)
(0 -0 -0.007344822484)
(0 -0 -0.00706651795)
(0 -0 -0.006792284727)
(0 -0 -0.00652978441)
(0 -0 -0.006283239646)
(0 -0 -0.006055042885)
(0 -0 -0.005846478374)
(0 -0 -0.005657815179)
(0 -0 -0.005488469541)
(0 -0 -0.005337299494)
(0 -0 -0.005202864461)
(0 -0 -0.005083594557)
(0 -0 -0.004977899567)
(0 -0 -0.004884243774)
(0 -0 -0.004801194255)
(0 -0 -0.004727446472)
(0 -0 -0.004661833606)
(0 -0 -0.004603323533)
(0 -0 -0.004551011518)
(0 -0 -0.004504109688)
(0 -0 -0.004461934292)
(0 -0 -0.00442389235)
(0 -0 -0.004389468644)
(0 -0 -0.004358213617)
(0 -0 -0.00432973247)
(0 -0 -0.004303675506)
(0 -0 -0.004279729737)
(0 -0 -0.004257611655)
(0 -0 -0.004237061122)
(0 -0 -0.004217836261)
(0 -0 -0.004199709287)
(0 -0 -0.004182463198)
(0 -0 -0.004165889251)
(0 -0 -0.004149785131)
(0 -0 -0.00413395371)
(0 -0 -0.004118202309)
(0 -0 -0.004102342377)
(0 -0 -0.004086189546)
(0 -0 -0.004069563993)
(0 -0 -0.004052291083)
(0 -0 -0.004034202225)
(0 -0 -0.004015135922)
(0 -0 -0.003994938948)
(0 -0 0.0003545019245)
(0 -0 -9.175805299e-06)
(0 -0 -0.0003972320243)
(0 -0 -0.0007985552372)
(0 -0 -0.001196290513)
(0 -0 -0.001574148986)
(0 -0 -0.001922949028)
(0 -0 -0.00223760169)
(0 -0 -0.00251413531)
(0 -0 -0.002750330066)
(0 -0 -0.002946587016)
(0 -0 -0.003105436641)
(0 -0 -0.003230538496)
(0 -0 -0.003326012218)
(0 -0 -0.00339610531)
(0 -0 -0.003444961666)
(0 -0 -0.003476430055)
(0 -0 -0.003493945374)
(0 -0 -0.003500485442)
(0 -0 -0.003498575318)
(0 -0 -0.003490315323)
(0 -0 -0.003477421476)
(0 -0 -0.003461272354)
(0 -0 -0.003442958154)
(0 -0 -0.003423328068)
(0 -0 -0.003403032746)
(0 -0 -0.003382561473)
(0 -0 -0.003362274294)
(0 -0 -0.003342429236)
(0 -0 -0.003323204868)
(0 -0 -0.003304718663)
(0 -0 -0.00328704172)
(0 -0 -0.003270210414)
(0 -0 -0.003254235494)
(0 -0 -0.003239109086)
(0 -0 -0.003224810013)
(0 -0 -0.003211307754)
(0 -0 -0.003198565328)
(0 -0 -0.003186541333)
(0 -0 -0.003175191319)
(0 -0 -0.00316446867)
(0 -0 -0.00315432511)
(0 -0 -0.003144710948)
(0 -0 -0.003135575139)
(0 -0 -0.003126865225)
(0 -0 -0.003118527191)
(0 -0 -0.003110505276)
(0 -0 -0.003102741823)
(0 -0 -0.003095177131)
(0 -0 -0.003087749368)
(0 -0 0.000174575451)
(0 -0 0.0002534218259)
(0 -0 0.0003171071122)
(0 -0 0.0003446065587)
(0 -0 0.0003302274791)
(0 -0 0.0002761934968)
(0 -0 0.0001890111919)
(0 -0 7.661047662e-05)
(0 -0 -5.307919225e-05)
(0 -0 -0.0001927570513)
(0 -0 -0.0003361748871)
(0 -0 -0.0004783780841)
(0 -0 -0.0006157147058)
(0 -0 -0.0007456890376)
(0 -0 -0.0008667687083)
(0 -0 -0.0009781865475)
(0 -0 -0.001079750229)
(0 -0 -0.001171672556)
(0 -0 -0.001254432115)
(0 -0 -0.001328665886)
(0 -0 -0.001395090103)
(0 -0 -0.001454444366)
(0 -0 -0.001507454443)
(0 -0 -0.001554808009)
(0 -0 -0.001597142267)
(0 -0 -0.001635038613)
(0 -0 -0.001669021537)
(0 -0 -0.001699560287)
(0 -0 -0.001727072236)
(0 -0 -0.001751927161)
(0 -0 -0.001774451872)
(0 -0 -0.001794934876)
(0 -0 -0.001813630838)
(0 -0 -0.001830764726)
(0 -0 -0.001846535576)
(0 -0 -0.001861119854)
(0 -0 -0.001874674416)
(0 -0 -0.001887339081)
(0 -0 -0.001899238841)
(0 -0 -0.001910485741)
(0 -0 -0.001921180452)
(0 -0 -0.001931413574)
(0 -0 -0.00194126669)
(0 -0 -0.001950813207)
(0 -0 -0.001960118995)
(0 -0 -0.001969242872)
(0 -0 -0.001978236941)
(0 -0 -0.001987146795)
(0 -0 -0.001996011625)
(0 -0 -0.002004864255)
(0 -0 0.0001479668491)
(0 -0 0.0001507031335)
(0 -0 0.0001614155568)
(0 -0 0.0001803590463)
(0 -0 0.0002049612066)
(0 -0 0.0002310311057)
(0 -0 0.0002540993507)
(0 -0 0.0002705927679)
(0 -0 0.0002782533861)
(0 -0 0.000276083893)
(0 -0 0.0002641310156)
(0 -0 0.0002432023891)
(0 -0 0.0002145643835)
(0 -0 0.0001796826089)
(0 -0 0.000140035571)
(0 -0 9.699592932e-05)
(0 -0 5.176525072e-05)
(0 -0 5.348020008e-06)
(0 -0 -4.144793559e-05)
(0 -0 -8.799542417e-05)
(0 -0 -0.00013382429)
(0 -0 -0.0001785955111)
(0 -0 -0.0002220762264)
(0 -0 -0.000264117058)
(0 -0 -0.0003046332202)
(0 -0 -0.000343588877)
(0 -0 -0.0003809845025)
(0 -0 -0.0004168469982)
(0 -0 -0.0004512220993)
(0 -0 -0.0004841686139)
(0 -0 -0.0005157541119)
(0 -0 -0.0005460517463)
(0 -0 -0.0005751379403)
(0 -0 -0.0006030907264)
(0 -0 -0.0006299885687)
(0 -0 -0.0006559095366)
(0 -0 -0.0006809307296)
(0 -0 -0.0007051278769)
(0 -0 -0.0007285750564)
(0 -0 -0.000751344489)
(0 -0 -0.000773506379)
(0 -0 -0.0007951287762)
(0 -0 -0.0008162774401)
(0 -0 -0.0008370156946)
(0 -0 -0.0008574042619)
(0 -0 -0.0008775010629)
(0 -0 -0.0008973610195)
(0 -0 -0.0009170358237)
(0 -0 -0.0009365736733)
(0 -0 -0.0009560189927)
(0 -0 0.0001042146247)
(0 -0 0.0001050379931)
(0 -0 0.0001061351181)
(0 -0 0.0001080336223)
(0 -0 0.0001114955104)
(0 -0 0.0001171484514)
(0 -0 0.0001252087452)
(0 -0 0.0001354116076)
(0 -0 0.0001471071523)
(0 -0 0.0001594207652)
(0 -0 0.0001714224371)
(0 -0 0.0001822698925)
(0 -0 0.0001912983308)
(0 -0 0.0001980536996)
(0 -0 0.0002022856876)
(0 -0 0.0002039180831)
(0 -0 0.0002030093748)
(0 -0 0.0001997124889)
(0 -0 0.0001942390681)
(0 -0 0.0001868308031)
(0 -0 0.0001777381756)
(0 -0 0.0001672058034)
(0 -0 0.0001554631397)
(0 -0 0.000142719242)
(0 -0 0.0001291604442)
(0 -0 0.0001149499534)
(0 -0 0.0001002286589)
(0 -0 8.511663879e-05)
(0 -0 6.971500099e-05)
(0 -0 5.410782047e-05)
(0 -0 3.836403327e-05)
(0 -0 2.253920606e-05)
(0 -0 6.677145e-06)
(0 -0 -9.188668938e-06)
(0 -0 -2.50338104e-05)
(0 -0 -4.084181448e-05)
(0 -0 -5.660319486e-05)
(0 -0 -7.231458995e-05)
(0 -0 -8.797801857e-05)
(0 -0 -0.0001036002218)
(0 -0 -0.0001191920745)
(0 -0 -0.0001347680527)
(0 -0 -0.0001503457387)
(0 -0 -0.0001659453494)
(0 -0 -0.0001815892744)
(0 -0 -0.0001973016179)
(0 -0 -0.0002131077533)
(0 -0 -0.0002290338664)
(0 -0 -0.0002451064672)
(0 -0 -0.0002613519312)
(0 -0 8.076636467e-05)
(0 -0 8.093066095e-05)
(0 -0 8.116228603e-05)
(0 -0 8.142611901e-05)
(0 -0 8.173345121e-05)
(0 -0 8.217163282e-05)
(0 -0 8.289634706e-05)
(0 -0 8.409333004e-05)
(0 -0 8.59267894e-05)
(0 -0 8.849573971e-05)
(0 -0 9.181186666e-05)
(0 -0 9.580096726e-05)
(0 -0 0.0001003211883)
(0 -0 0.0001051886857)
(0 -0 0.0001102033572)
(0 -0 0.0001151703917)
(0 -0 0.0001199155989)
(0 -0 0.0001242942539)
(0 -0 0.0001281944372)
(0 -0 0.0001315364077)
(0 -0 0.0001342695108)
(0 -0 0.0001363678246)
(0 -0 0.0001378254104)
(0 -0 0.000138651726)
(0 -0 0.0001388675263)
(0 -0 0.0001385013853)
(0 -0 0.0001375868517)
(0 -0 0.0001361601928)
(0 -0 0.000134258649)
(0 -0 0.0001319191149)
(0 -0 0.0001291771759)
(0 -0 0.0001260663947)
(0 -0 0.0001226178386)
(0 -0 0.0001188597619)
(0 -0 0.0001148175212)
(0 -0 0.0001105126366)
(0 -0 0.0001059641874)
(0 -0 0.0001011883852)
(0 -0 9.619833446e-05)
(0 -0 9.100403768e-05)
(0 -0 8.561245327e-05)
(0 -0 8.002756094e-05)
(0 -0 7.425044088e-05)
(0 -0 6.827937729e-05)
(0 -0 6.210998601e-05)
(0 -0 5.573536301e-05)
(0 -0 4.914619443e-05)
(0 -0 4.23309051e-05)
(0 -0 3.527671944e-05)
(0 -0 2.796959484e-05)
(0 -0 6.423669791e-05)
(0 -0 6.427122389e-05)
(0 -0 6.435229618e-05)
(0 -0 6.447895249e-05)
(0 -0 6.464048388e-05)
(0 -0 6.482074318e-05)
(0 -0 6.500539407e-05)
(0 -0 6.519262177e-05)
(0 -0 6.539942298e-05)
(0 -0 6.565954138e-05)
(0 -0 6.601571079e-05)
(0 -0 6.651058733e-05)
(0 -0 6.717899432e-05)
(0 -0 6.80426436e-05)
(0 -0 6.91078153e-05)
(0 -0 7.036582204e-05)
(0 -0 7.179546404e-05)
(0 -0 7.336647223e-05)
(0 -0 7.504311507e-05)
(0 -0 7.678745004e-05)
(0 -0 7.856195619e-05)
(0 -0 8.033146408e-05)
(0 -0 8.206441753e-05)
(0 -0 8.373356866e-05)
(0 -0 8.531623236e-05)
(0 -0 8.679422165e-05)
(0 -0 8.815356525e-05)
(0 -0 8.938409299e-05)
(0 -0 9.047894738e-05)
(0 -0 9.143405263e-05)
(0 -0 9.224779379e-05)
(0 -0 9.29196049e-05)
(0 -0 9.345080828e-05)
(0 -0 9.384413655e-05)
(0 -0 9.410308117e-05)
(0 -0 9.423236434e-05)
(0 -0 9.423622204e-05)
(0 -0 9.411865864e-05)
(0 -0 9.388349243e-05)
(0 -0 9.353420906e-05)
(0 -0 9.307380401e-05)
(0 -0 9.250465032e-05)
(0 -0 9.182838173e-05)
(0 -0 9.104578324e-05)
(0 -0 9.0156689e-05)
(0 -0 8.915989693e-05)
(0 -0 8.805312941e-05)
(0 -0 8.683281716e-05)
(0 -0 8.549324699e-05)
(0 -0 8.402705488e-05)
(0 -0 5.165796343e-05)
(0 -0 5.161454996e-05)
(0 -0 5.159309861e-05)
(0 -0 5.160152083e-05)
(0 -0 5.164088121e-05)
(0 -0 5.170892928e-05)
(0 -0 5.180022372e-05)
(0 -0 5.190750242e-05)
(0 -0 5.202371971e-05)
(0 -0 5.214366491e-05)
(0 -0 5.226497365e-05)
(0 -0 5.238872697e-05)
(0 -0 5.251949994e-05)
(0 -0 5.266466738e-05)
(0 -0 5.28331454e-05)
(0 -0 5.303399645e-05)
(0 -0 5.327524026e-05)
(0 -0 5.356301728e-05)
(0 -0 5.390112489e-05)
(0 -0 5.429089147e-05)
(0 -0 5.473132199e-05)
(0 -0 5.521943103e-05)
(0 -0 5.575067679e-05)
(0 -0 5.631942453e-05)
(0 -0 5.69193856e-05)
(0 -0 5.75440014e-05)
(0 -0 5.818672907e-05)
(0 -0 5.884133176e-05)
(0 -0 5.950173535e-05)
(0 -0 6.016243252e-05)
(0 -0 6.081851645e-05)
(0 -0 6.146655456e-05)
(0 -0 6.21032749e-05)
(0 -0 6.272570135e-05)
(0 -0 6.333124912e-05)
(0 -0 6.391863853e-05)
(0 -0 6.448640488e-05)
(0 -0 6.503322291e-05)
(0 -0 6.555814751e-05)
(0 -0 6.606060178e-05)
(0 -0 6.654031621e-05)
(0 -0 6.699727869e-05)
(0 -0 6.743168702e-05)
(0 -0 6.784389191e-05)
(0 -0 6.823433254e-05)
(0 -0 6.860346345e-05)
(0 -0 6.895174832e-05)
(0 -0 6.927972127e-05)
(0 -0 6.958690296e-05)
(0 -0 6.987172557e-05)
(0 -0 4.195139342e-05)
(0 -0 4.18438876e-05)
(0 -0 4.174015151e-05)
(0 -0 4.165151553e-05)
(0 -0 4.158121934e-05)
(0 -0 4.153017133e-05)
(0 -0 4.149799781e-05)
(0 -0 4.148368957e-05)
(0 -0 4.148593927e-05)
(0 -0 4.150310649e-05)
(0 -0 4.153311338e-05)
(0 -0 4.157361969e-05)
(0 -0 4.162246095e-05)
(0 -0 4.16780933e-05)
(0 -0 4.173985888e-05)
(0 -0 4.18080466e-05)
(0 -0 4.188379624e-05)
(0 -0 4.196889131e-05)
(0 -0 4.206548564e-05)
(0 -0 4.217581718e-05)
(0 -0 4.230196128e-05)
(0 -0 4.244565338e-05)
(0 -0 4.260818805e-05)
(0 -0 4.279038139e-05)
(0 -0 4.299258049e-05)
(0 -0 4.321472513e-05)
(0 -0 4.345611336e-05)
(0 -0 4.37159103e-05)
(0 -0 4.39932703e-05)
(0 -0 4.428707167e-05)
(0 -0 4.459570436e-05)
(0 -0 4.491826428e-05)
(0 -0 4.52533944e-05)
(0 -0 4.559941619e-05)
(0 -0 4.595470914e-05)
(0 -0 4.631697413e-05)
(0 -0 4.668473573e-05)
(0 -0 4.705693624e-05)
(0 -0 4.743267737e-05)
(0 -0 4.781118492e-05)
(0 -0 4.819180906e-05)
(0 -0 4.857401821e-05)
(0 -0 4.895739575e-05)
(0 -0 4.93416434e-05)
(0 -0 4.972658425e-05)
(0 -0 5.011216241e-05)
(0 -0 5.049839367e-05)
(0 -0 5.08853491e-05)
(0 -0 5.127399384e-05)
(0 -0 5.166584928e-05)
(0 -0 3.425564929e-05)
(0 -0 3.409964603e-05)
(0 -0 3.393490586e-05)
(0 -0 3.377535814e-05)
(0 -0 3.362538342e-05)
(0 -0 3.348678371e-05)
(0 -0 3.336033354e-05)
(0 -0 3.324655949e-05)
(0 -0 3.31460425e-05)
(0 -0 3.305931827e-05)
(0 -0 3.298663024e-05)
(0 -0 3.292783262e-05)
(0 -0 3.28825009e-05)
(0 -0 3.285012538e-05)
(0 -0 3.283027646e-05)
(0 -0 3.282270959e-05)
(0 -0 3.282741476e-05)
(0 -0 3.284461287e-05)
(0 -0 3.287470449e-05)
(0 -0 3.29181901e-05)
(0 -0 3.297559063e-05)
(0 -0 3.30473805e-05)
(0 -0 3.313396072e-05)
(0 -0 3.323561096e-05)
(0 -0 3.335233108e-05)
(0 -0 3.348413602e-05)
(0 -0 3.363119237e-05)
(0 -0 3.379328065e-05)
(0 -0 3.397020325e-05)
(0 -0 3.416156094e-05)
(0 -0 3.436676272e-05)
(0 -0 3.458418281e-05)
(0 -0 3.481249798e-05)
(0 -0 3.505062006e-05)
(0 -0 3.529749701e-05)
(0 -0 3.555206913e-05)
(0 -0 3.581329112e-05)
(0 -0 3.608015339e-05)
(0 -0 3.635169685e-05)
(0 -0 3.662702743e-05)
(0 -0 3.690533014e-05)
(0 -0 3.718588283e-05)
(0 -0 3.746807244e-05)
(0 -0 3.77514128e-05)
(0 -0 3.803555594e-05)
(0 -0 3.83202911e-05)
(0 -0 3.86055384e-05)
(0 -0 3.889136151e-05)
(0 -0 3.917799799e-05)
(0 -0 3.946584115e-05)
(0 -0 2.8023997e-05)
(0 -0 2.782786023e-05)
(0 -0 2.76138227e-05)
(0 -0 2.739808137e-05)
(0 -0 2.718597586e-05)
(0 -0 2.698000367e-05)
(0 -0 2.678170387e-05)
(0 -0 2.659247784e-05)
(0 -0 2.641381844e-05)
(0 -0 2.624717135e-05)
(0 -0 2.609369543e-05)
(0 -0 2.59541778e-05)
(0 -0 2.582913595e-05)
(0 -0 2.571898338e-05)
(0 -0 2.56241552e-05)
(0 -0 2.554516939e-05)
(0 -0 2.548263346e-05)
(0 -0 2.543720701e-05)
(0 -0 2.540953631e-05)
(0 -0 2.540017508e-05)
(0 -0 2.540954132e-05)
(0 -0 2.543785338e-05)
(0 -0 2.548501853e-05)
(0 -0 2.555096204e-05)
(0 -0 2.563564333e-05)
(0 -0 2.573874104e-05)
(0 -0 2.586003576e-05)
(0 -0 2.599895643e-05)
(0 -0 2.615451303e-05)
(0 -0 2.632557935e-05)
(0 -0 2.651104009e-05)
(0 -0 2.670967354e-05)
(0 -0 2.692016072e-05)
(0 -0 2.714112267e-05)
(0 -0 2.737115313e-05)
(0 -0 2.760884216e-05)
(0 -0 2.78527941e-05)
(0 -0 2.810164307e-05)
(0 -0 2.835406844e-05)
(0 -0 2.860881158e-05)
(0 -0 2.886469152e-05)
(0 -0 2.91206175e-05)
(0 -0 2.937560273e-05)
(0 -0 2.96287859e-05)
(0 -0 2.987945734e-05)
(0 -0 3.01270727e-05)
(0 -0 3.037124499e-05)
(0 -0 3.061173227e-05)
(0 -0 3.084844133e-05)
(0 -0 3.108143938e-05)
(0 -0 2.289877208e-05)
(0 -0 2.266705136e-05)
(0 -0 2.241024251e-05)
(0 -0 2.214664661e-05)
(0 -0 2.188244983e-05)
(0 -0 2.162073273e-05)
(0 -0 2.136364096e-05)
(0 -0 2.111325879e-05)
(0 -0 2.087179074e-05)
(0 -0 2.064137837e-05)
(0 -0 2.042384003e-05)
(0 -0 2.022058165e-05)
(0 -0 2.003270306e-05)
(0 -0 1.98611706e-05)
(0 -0 1.970694896e-05)
(0 -0 1.957106131e-05)
(0 -0 1.945458862e-05)
(0 -0 1.935861367e-05)
(0 -0 1.928415429e-05)
(0 -0 1.923204444e-05)
(0 -0 1.920277261e-05)
(0 -0 1.919671932e-05)
(0 -0 1.921413193e-05)
(0 -0 1.925490353e-05)
(0 -0 1.931890744e-05)
(0 -0 1.94057162e-05)
(0 -0 1.951443087e-05)
(0 -0 1.964414048e-05)
(0 -0 1.979380259e-05)
(0 -0 1.996216271e-05)
(0 -0 2.014779e-05)
(0 -0 2.034911397e-05)
(0 -0 2.056445969e-05)
(0 -0 2.079208128e-05)
(0 -0 2.103019106e-05)
(0 -0 2.127698508e-05)
(0 -0 2.153066578e-05)
(0 -0 2.178946252e-05)
(0 -0 2.205165071e-05)
(0 -0 2.23155706e-05)
(0 -0 2.257964612e-05)
(0 -0 2.284240203e-05)
(0 -0 2.310247795e-05)
(0 -0 2.335864393e-05)
(0 -0 2.360982414e-05)
(0 -0 2.38551231e-05)
(0 -0 2.409383589e-05)
(0 -0 2.432543587e-05)
(0 -0 2.454955795e-05)
(0 -0 2.476599076e-05)
(0 -0 1.862946655e-05)
(0 -0 1.836487934e-05)
(0 -0 1.80692274e-05)
(0 -0 1.776283655e-05)
(0 -0 1.745267355e-05)
(0 -0 1.714232404e-05)
(0 -0 1.68344281e-05)
(0 -0 1.653161974e-05)
(0 -0 1.623668516e-05)
(0 -0 1.595234615e-05)
(0 -0 1.568097663e-05)
(0 -0 1.542450101e-05)
(0 -0 1.518450004e-05)
(0 -0 1.496238978e-05)
(0 -0 1.475956121e-05)
(0 -0 1.457743966e-05)
(0 -0 1.44174909e-05)
(0 -0 1.42811375e-05)
(0 -0 1.416959473e-05)
(0 -0 1.408398775e-05)
(0 -0 1.402523514e-05)
(0 -0 1.399383497e-05)
(0 -0 1.399014442e-05)
(0 -0 1.40141122e-05)
(0 -0 1.406522371e-05)
(0 -0 1.414286972e-05)
(0 -0 1.424624215e-05)
(0 -0 1.437430516e-05)
(0 -0 1.452579552e-05)
(0 -0 1.469922145e-05)
(0 -0 1.489288436e-05)
(0 -0 1.510491473e-05)
(0 -0 1.533331226e-05)
(0 -0 1.557598383e-05)
(0 -0 1.583077785e-05)
(0 -0 1.609551649e-05)
(0 -0 1.636802568e-05)
(0 -0 1.664616095e-05)
(0 -0 1.692782683e-05)
(0 -0 1.721099251e-05)
(0 -0 1.749371041e-05)
(0 -0 1.777414084e-05)
(0 -0 1.805057654e-05)
(0 -0 1.832146059e-05)
(0 -0 1.858540258e-05)
(0 -0 1.88412019e-05)
(0 -0 1.908786983e-05)
(0 -0 1.932463196e-05)
(0 -0 1.95509104e-05)
(0 -0 1.976629867e-05)
(0 -0 1.503677641e-05)
(0 -0 1.474092027e-05)
(0 -0 1.440878408e-05)
(0 -0 1.406268508e-05)
(0 -0 1.371033678e-05)
(0 -0 1.335578481e-05)
(0 -0 1.300209612e-05)
(0 -0 1.265237207e-05)
(0 -0 1.230989687e-05)
(0 -0 1.197789419e-05)
(0 -0 1.165922068e-05)
(0 -0 1.135625015e-05)
(0 -0 1.107097821e-05)
(0 -0 1.080520812e-05)
(0 -0 1.056070697e-05)
(0 -0 1.033925639e-05)
(0 -0 1.014259236e-05)
(0 -0 9.972504213e-06)
(0 -0 9.830658454e-06)
(0 -0 9.718366849e-06)
(0 -0 9.636777736e-06)
(0 -0 9.586569559e-06)
(0 -0 9.567871731e-06)
(0 -0 9.580578378e-06)
(0 -0 9.624309622e-06)
(0 -0 9.698424642e-06)
(0 -0 9.802021425e-06)
(0 -0 9.933920503e-06)
(0 -0 1.009266059e-05)
(0 -0 1.027651317e-05)
(0 -0 1.048351393e-05)
(0 -0 1.071150395e-05)
(0 -0 1.095817208e-05)
(0 -0 1.12210947e-05)
(0 -0 1.149777354e-05)
(0 -0 1.178567255e-05)
(0 -0 1.208225352e-05)
(0 -0 1.238500731e-05)
(0 -0 1.269147745e-05)
(0 -0 1.299927721e-05)
(0 -0 1.330610694e-05)
(0 -0 1.360977917e-05)
(0 -0 1.390824991e-05)
(0 -0 1.419964622e-05)
(0 -0 1.448228715e-05)
(0 -0 1.475470659e-05)
(0 -0 1.501567569e-05)
(0 -0 1.526420269e-05)
(0 -0 1.549950516e-05)
(0 -0 1.572098251e-05)
(0 -0 1.198997889e-05)
(0 -0 1.166376013e-05)
(0 -0 1.129653552e-05)
(0 -0 1.091260543e-05)
(0 -0 1.052041694e-05)
(0 -0 1.012445323e-05)
(0 -0 9.728169147e-06)
(0 -0 9.335081023e-06)
(0 -0 8.948912751e-06)
(0 -0 8.573331295e-06)
(0 -0 8.211618204e-06)
(0 -0 7.866540451e-06)
(0 -0 7.540461359e-06)
(0 -0 7.235526961e-06)
(0 -0 6.953798261e-06)
(0 -0 6.697443797e-06)
(0 -0 6.468656236e-06)
(0 -0 6.269461317e-06)
(0 -0 6.101852789e-06)
(0 -0 5.967466666e-06)
(0 -0 5.867380905e-06)
(0 -0 5.802322855e-06)
(0 -0 5.772621875e-06)
(0 -0 5.778232339e-06)
(0 -0 5.818765449e-06)
(0 -0 5.893507569e-06)
(0 -0 6.00142794e-06)
(0 -0 6.141180928e-06)
(0 -0 6.311112199e-06)
(0 -0 6.509276194e-06)
(0 -0 6.733465519e-06)
(0 -0 6.981248609e-06)
(0 -0 7.250011765e-06)
(0 -0 7.537003447e-06)
(0 -0 7.839379507e-06)
(0 -0 8.154247106e-06)
(0 -0 8.478704892e-06)
(0 -0 8.809878372e-06)
(0 -0 9.144949647e-06)
(0 -0 9.481179822e-06)
(0 -0 9.815925835e-06)
(0 -0 1.014666155e-05)
(0 -0 1.047101251e-05)
(0 -0 1.078679734e-05)
(0 -0 1.10920589e-05)
(0 -0 1.138508297e-05)
(0 -0 1.166441447e-05)
(0 -0 1.192885955e-05)
(0 -0 1.21774537e-05)
(0 -0 1.240941862e-05)
(0 -0 9.392143076e-06)
(0 -0 9.03604823e-06)
(0 -0 8.63455066e-06)
(0 -0 8.213943095e-06)
(0 -0 7.783402499e-06)
(0 -0 7.347825774e-06)
(0 -0 6.911008545e-06)
(0 -0 6.476818691e-06)
(0 -0 6.049350485e-06)
(0 -0 5.632654941e-06)
(0 -0 5.230413245e-06)
(0 -0 4.845796148e-06)
(0 -0 4.481550724e-06)
(0 -0 4.140262933e-06)
(0 -0 3.824436384e-06)
(0 -0 3.536466465e-06)
(0 -0 3.278854027e-06)
(0 -0 3.053998995e-06)
(0 -0 2.863948771e-06)
(0 -0 2.710466168e-06)
(0 -0 2.594916377e-06)
(0 -0 2.518186065e-06)
(0 -0 2.480688859e-06)
(0 -0 2.482390794e-06)
(0 -0 2.522850647e-06)
(0 -0 2.601256999e-06)
(0 -0 2.716451001e-06)
(0 -0 2.866937571e-06)
(0 -0 3.050894557e-06)
(0 -0 3.266187029e-06)
(0 -0 3.510388823e-06)
(0 -0 3.78081243e-06)
(0 -0 4.074548689e-06)
(0 -0 4.388516149e-06)
(0 -0 4.7195169e-06)
(0 -0 5.064292106e-06)
(0 -0 5.419570583e-06)
(0 -0 5.782108689e-06)
(0 -0 6.148723743e-06)
(0 -0 6.516321131e-06)
(0 -0 6.881913454e-06)
(0 -0 7.242639104e-06)
(0 -0 7.595797611e-06)
(0 -0 7.938904656e-06)
(0 -0 8.269738263e-06)
(0 -0 8.586350536e-06)
(0 -0 8.887061596e-06)
(0 -0 9.170460958e-06)
(0 -0 9.435400007e-06)
(0 -0 9.680956731e-06)
(0 -0 7.170499345e-06)
(0 -0 6.784792513e-06)
(0 -0 6.349532608e-06)
(0 -0 5.892993261e-06)
(0 -0 5.425023748e-06)
(0 -0 4.950840767e-06)
(0 -0 4.474494337e-06)
(0 -0 4.000168856e-06)
(0 -0 3.532347188e-06)
(0 -0 3.075509163e-06)
(0 -0 2.633815729e-06)
(0 -0 2.211048685e-06)
(0 -0 1.810600319e-06)
(0 -0 1.435484673e-06)
(0 -0 1.088548106e-06)
(0 -0 7.724308873e-07)
(0 -0 4.895258756e-07)
(0 -0 2.421683457e-07)
(0 -0 3.259143095e-08)
(0 -0 -1.372191419e-07)
(0 -0 -2.656719976e-07)
(0 -0 -3.516870359e-07)
(0 -0 -3.947345755e-07)
(0 -0 -3.948090576e-07)
(0 -0 -3.523727631e-07)
(0 -0 -2.683009199e-07)
(0 -0 -1.438453753e-07)
(0 -0 1.938178218e-08)
(0 -0 2.194134333e-07)
(0 -0 4.539327865e-07)
(0 -0 7.202882069e-07)
(0 -0 1.015522689e-06)
(0 -0 1.336419048e-06)
(0 -0 1.679558621e-06)
(0 -0 2.04138831e-06)
(0 -0 2.418287478e-06)
(0 -0 2.806624455e-06)
(0 -0 3.202796623e-06)
(0 -0 3.603258586e-06)
(0 -0 4.004549551e-06)
(0 -0 4.403324335e-06)
(0 -0 4.796383913e-06)
(0 -0 5.180709232e-06)
(0 -0 5.553510667e-06)
(0 -0 5.912283705e-06)
(0 -0 6.254835835e-06)
(0 -0 6.579275315e-06)
(0 -0 6.883995044e-06)
(0 -0 7.167664902e-06)
(0 -0 7.429209421e-06)
(0 -0 5.269938123e-06)
(0 -0 4.854827683e-06)
(0 -0 4.386134675e-06)
(0 -0 3.893887927e-06)
(0 -0 3.388362626e-06)
(0 -0 2.875031837e-06)
(0 -0 2.358508136e-06)
(0 -0 1.8439361e-06)
(0 -0 1.336843201e-06)
(0 -0 8.424256322e-07)
(0 -0 3.649947282e-07)
(0 -0 -9.194116221e-08)
(0 -0 -5.251321496e-07)
(0 -0 -9.313708091e-07)
(0 -0 -1.307563727e-06)
(0 -0 -1.650732788e-06)
(0 -0 -1.958058442e-06)
(0 -0 -2.22687639e-06)
(0 -0 -2.454705773e-06)
(0 -0 -2.639362327e-06)
(0 -0 -2.779102703e-06)
(0 -0 -2.872734539e-06)
(0 -0 -2.919654923e-06)
(0 -0 -2.919822381e-06)
(0 -0 -2.873697419e-06)
(0 -0 -2.78218794e-06)
(0 -0 -2.64661848e-06)
(0 -0 -2.468722584e-06)
(0 -0 -2.250644071e-06)
(0 -0 -1.994929738e-06)
(0 -0 -1.704503005e-06)
(0 -0 -1.382618127e-06)
(0 -0 -1.032801367e-06)
(0 -0 -6.587863345e-07)
(0 -0 -2.644476204e-07)
(0 -0 1.462643003e-07)
(0 -0 5.693801446e-07)
(0 -0 1.000951716e-06)
(0 -0 1.437075441e-06)
(0 -0 1.873917602e-06)
(0 -0 2.307758984e-06)
(0 -0 2.735050732e-06)
(0 -0 3.152458738e-06)
(0 -0 3.556897271e-06)
(0 -0 3.945570925e-06)
(0 -0 4.316015703e-06)
(0 -0 4.666109567e-06)
(0 -0 4.994057467e-06)
(0 -0 5.298373088e-06)
(0 -0 5.577846838e-06)
(0 -0 3.648541636e-06)
(0 -0 3.203959448e-06)
(0 -0 2.700859191e-06)
(0 -0 2.171101389e-06)
(0 -0 1.626653054e-06)
(0 -0 1.074708616e-06)
(0 -0 5.207768831e-07)
(0 -0 -3.008154213e-08)
(0 -0 -5.727908712e-07)
(0 -0 -1.102352204e-06)
(0 -0 -1.614201065e-06)
(0 -0 -2.104441811e-06)
(0 -0 -2.569664417e-06)
(0 -0 -3.006555635e-06)
(0 -0 -3.411733745e-06)
(0 -0 -3.781775751e-06)
(0 -0 -4.113327871e-06)
(0 -0 -4.403231966e-06)
(0 -0 -4.648648937e-06)
(0 -0 -4.84718459e-06)
(0 -0 -4.996995056e-06)
(0 -0 -5.096846436e-06)
(0 -0 -5.146118259e-06)
(0 -0 -5.144763154e-06)
(0 -0 -5.093251347e-06)
(0 -0 -4.992529346e-06)
(0 -0 -4.844005589e-06)
(0 -0 -4.649555267e-06)
(0 -0 -4.411523687e-06)
(0 -0 -4.132709402e-06)
(0 -0 -3.816321513e-06)
(0 -0 -3.465917647e-06)
(0 -0 -3.085333951e-06)
(0 -0 -2.678616501e-06)
(0 -0 -2.249958288e-06)
(0 -0 -1.803641256e-06)
(0 -0 -1.343982324e-06)
(0 -0 -8.752871649e-07)
(0 -0 -4.018171001e-07)
(0 -0 7.223772425e-08)
(0 -0 5.427999357e-07)
(0 -0 1.005969166e-06)
(0 -0 1.458085373e-06)
(0 -0 1.895769386e-06)
(0 -0 2.3159544e-06)
(0 -0 2.715921401e-06)
(0 -0 3.093315611e-06)
(0 -0 3.446133934e-06)
(0 -0 3.772710854e-06)
(0 -0 4.071701048e-06)
(0 -0 2.273304698e-06)
(0 -0 1.796411713e-06)
(0 -0 1.256786358e-06)
(0 -0 6.907269359e-07)
(0 -0 1.114898895e-07)
(0 -0 -4.746166764e-07)
(0 -0 -1.063171356e-06)
(0 -0 -1.649527383e-06)
(0 -0 -2.228474528e-06)
(0 -0 -2.794552358e-06)
(0 -0 -3.342508703e-06)
(0 -0 -3.86762612e-06)
(0 -0 -4.365770238e-06)
(0 -0 -4.833199845e-06)
(0 -0 -5.266339489e-06)
(0 -0 -5.661646319e-06)
(0 -0 -6.015605788e-06)
(0 -0 -6.324836964e-06)
(0 -0 -6.586257694e-06)
(0 -0 -6.797256686e-06)
(0 -0 -6.955825359e-06)
(0 -0 -7.060621766e-06)
(0 -0 -7.110965074e-06)
(0 -0 -7.106784531e-06)
(0 -0 -7.048559001e-06)
(0 -0 -6.937278353e-06)
(0 -0 -6.774436457e-06)
(0 -0 -6.562041442e-06)
(0 -0 -6.302618607e-06)
(0 -0 -5.999188647e-06)
(0 -0 -5.655219341e-06)
(0 -0 -5.27455899e-06)
(0 -0 -4.861361068e-06)
(0 -0 -4.420008067e-06)
(0 -0 -3.955042542e-06)
(0 -0 -3.471110134e-06)
(0 -0 -2.97290968e-06)
(0 -0 -2.465140947e-06)
(0 -0 -1.952451505e-06)
(0 -0 -1.439393839e-06)
(0 -0 -9.30388935e-07)
(0 -0 -4.296750578e-07)
(0 -0 5.876025154e-08)
(0 -0 5.312372067e-07)
(0 -0 9.844195895e-07)
(0 -0 1.415346924e-06)
(0 -0 1.821455004e-06)
(0 -0 2.200560202e-06)
(0 -0 2.550829402e-06)
(0 -0 2.870763634e-06)
(0 -0 1.112885548e-06)
(0 -0 6.04698146e-07)
(0 -0 3.446878262e-08)
(0 -0 -5.625570986e-07)
(0 -0 -1.174942001e-06)
(0 -0 -1.796748773e-06)
(0 -0 -2.42295076e-06)
(0 -0 -3.047737124e-06)
(0 -0 -3.664667073e-06)
(0 -0 -4.26744866e-06)
(0 -0 -4.85047272e-06)
(0 -0 -5.408891796e-06)
(0 -0 -5.938419566e-06)
(0 -0 -6.435081751e-06)
(0 -0 -6.895037764e-06)
(0 -0 -7.314494722e-06)
(0 -0 -7.689711764e-06)
(0 -0 -8.017090975e-06)
(0 -0 -8.293338836e-06)
(0 -0 -8.515648417e-06)
(0 -0 -8.681847422e-06)
(0 -0 -8.790473425e-06)
(0 -0 -8.840770767e-06)
(0 -0 -8.832636321e-06)
(0 -0 -8.766556148e-06)
(0 -0 -8.643566486e-06)
(0 -0 -8.465247552e-06)
(0 -0 -8.233733606e-06)
(0 -0 -7.951714195e-06)
(0 -0 -7.622410617e-06)
(0 -0 -7.249526607e-06)
(0 -0 -6.837181479e-06)
(0 -0 -6.389834035e-06)
(0 -0 -5.912202921e-06)
(0 -0 -5.409190648e-06)
(0 -0 -4.885820294e-06)
(0 -0 -4.347185231e-06)
(0 -0 -3.798397704e-06)
(0 -0 -3.244524819e-06)
(0 -0 -2.690523166e-06)
(0 -0 -2.141188818e-06)
(0 -0 -1.60111138e-06)
(0 -0 -1.074610792e-06)
(0 -0 -5.656719009e-07)
(0 -0 -7.790458093e-08)
(0 -0 3.85482965e-07)
(0 -0 8.217117082e-07)
(0 -0 1.228429895e-06)
(0 -0 1.603673233e-06)
(0 -0 1.94582564e-06)
(0 -0 1.524754559e-07)
(0 -0 -3.787828261e-07)
(0 -0 -9.788232057e-07)
(0 -0 -1.610127915e-06)
(0 -0 -2.259952606e-06)
(0 -0 -2.920334878e-06)
(0 -0 -3.584689589e-06)
(0 -0 -4.246679246e-06)
(0 -0 -4.89984083e-06)
(0 -0 -5.537811118e-06)
(0 -0 -6.154751972e-06)
(0 -0 -6.745525242e-06)
(0 -0 -7.305555444e-06)
(0 -0 -7.830588002e-06)
(0 -0 -8.316509957e-06)
(0 -0 -8.759268422e-06)
(0 -0 -9.154878616e-06)
(0 -0 -9.499513457e-06)
(0 -0 -9.789665933e-06)
(0 -0 -1.002233808e-05)
(0 -0 -1.019519813e-05)
(0 -0 -1.030666315e-05)
(0 -0 -1.035589957e-05)
(0 -0 -1.034276957e-05)
(0 -0 -1.026776683e-05)
(0 -0 -1.013197518e-05)
(0 -0 -9.937059789e-06)
(0 -0 -9.685276358e-06)
(0 -0 -9.379473796e-06)
(0 -0 -9.023071425e-06)
(0 -0 -8.620006657e-06)
(0 -0 -8.174662737e-06)
(0 -0 -7.691790839e-06)
(0 -0 -7.176433994e-06)
(0 -0 -6.633851979e-06)
(0 -0 -6.069448629e-06)
(0 -0 -5.488709571e-06)
(0 -0 -4.897150078e-06)
(0 -0 -4.300256423e-06)
(0 -0 -3.703411642e-06)
(0 -0 -3.111823702e-06)
(0 -0 -2.530468999e-06)
(0 -0 -1.964031979e-06)
(0 -0 -1.416832363e-06)
(0 -0 -8.927706129e-07)
(0 -0 -3.953031314e-07)
(0 -0 7.25762971e-08)
(0 -0 5.083399251e-07)
(0 -0 9.098900049e-07)
(0 -0 1.275510015e-06)
(0 -0 -6.125274856e-07)
(0 -0 -1.172086531e-06)
(0 -0 -1.807513219e-06)
(0 -0 -2.476184039e-06)
(0 -0 -3.162911538e-06)
(0 -0 -3.859734723e-06)
(0 -0 -4.560411968e-06)
(0 -0 -5.258495744e-06)
(0 -0 -5.947170642e-06)
(0 -0 -6.619701851e-06)
(0 -0 -7.269914383e-06)
(0 -0 -7.892361997e-06)
(0 -0 -8.482179973e-06)
(0 -0 -9.034835969e-06)
(0 -0 -9.545949539e-06)
(0 -0 -1.001121259e-05)
(0 -0 -1.042639775e-05)
(0 -0 -1.078744951e-05)
(0 -0 -1.109064845e-05)
(0 -0 -1.133280648e-05)
(0 -0 -1.151143202e-05)
(0 -0 -1.162481954e-05)
(0 -0 -1.167205513e-05)
(0 -0 -1.165296483e-05)
(0 -0 -1.156804839e-05)
(0 -0 -1.141843371e-05)
(0 -0 -1.120586486e-05)
(0 -0 -1.09327123e-05)
(0 -0 -1.06019794e-05)
(0 -0 -1.021728186e-05)
(0 -0 -9.782791962e-06)
(0 -0 -9.303158196e-06)
(0 -0 -8.783421549e-06)
(0 -0 -8.228942019e-06)
(0 -0 -7.645330038e-06)
(0 -0 -7.03837048e-06)
(0 -0 -6.413944027e-06)
(0 -0 -5.777963244e-06)
(0 -0 -5.136320489e-06)
(0 -0 -4.4948222e-06)
(0 -0 -3.859105718e-06)
(0 -0 -3.234563361e-06)
(0 -0 -2.62627541e-06)
(0 -0 -2.038931261e-06)
(0 -0 -1.476756084e-06)
(0 -0 -9.434765513e-07)
(0 -0 -4.423125824e-07)
(0 -0 2.402707009e-08)
(0 -0 4.533200503e-07)
(0 -0 8.437690207e-07)
(0 -0 -1.205165149e-06)
(0 -0 -1.798042868e-06)
(0 -0 -2.467190618e-06)
(0 -0 -3.170341969e-06)
(0 -0 -3.892323967e-06)
(0 -0 -4.624858817e-06)
(0 -0 -5.361348498e-06)
(0 -0 -6.094987694e-06)
(0 -0 -6.818591192e-06)
(0 -0 -7.525060452e-06)
(0 -0 -8.207883215e-06)
(0 -0 -8.861305722e-06)
(0 -0 -9.480177368e-06)
(0 -0 -1.005969396e-05)
(0 -0 -1.059521363e-05)
(0 -0 -1.108217898e-05)
(0 -0 -1.151612541e-05)
(0 -0 -1.189277268e-05)
(0 -0 -1.220819035e-05)
(0 -0 -1.245899882e-05)
(0 -0 -1.264254398e-05)
(0 -0 -1.275699603e-05)
(0 -0 -1.280136054e-05)
(0 -0 -1.277542623e-05)
(0 -0 -1.267969401e-05)
(0 -0 -1.251532785e-05)
(0 -0 -1.228414337e-05)
(0 -0 -1.198862066e-05)
(0 -0 -1.163191198e-05)
(0 -0 -1.121782049e-05)
(0 -0 -1.0750744e-05)
(0 -0 -1.023559357e-05)
(0 -0 -9.677704277e-06)
(0 -0 -9.082754418e-06)
(0 -0 -8.456696281e-06)
(0 -0 -7.805685205e-06)
(0 -0 -7.135997213e-06)
(0 -0 -6.453949479e-06)
(0 -0 -5.765841073e-06)
(0 -0 -5.0778981e-06)
(0 -0 -4.39619475e-06)
(0 -0 -3.726559648e-06)
(0 -0 -3.07449147e-06)
(0 -0 -2.445076383e-06)
(0 -0 -1.842901896e-06)
(0 -0 -1.272009256e-06)
(0 -0 -7.358765421e-07)
(0 -0 -2.373913391e-07)
(0 -0 2.211344813e-07)
(0 -0 6.378497898e-07)
(0 -0 -1.641382713e-06)
(0 -0 -2.262757492e-06)
(0 -0 -2.964259131e-06)
(0 -0 -3.701312518e-06)
(0 -0 -4.458025163e-06)
(0 -0 -5.225709079e-06)
(0 -0 -5.997409918e-06)
(0 -0 -6.765962105e-06)
(0 -0 -7.523811108e-06)
(0 -0 -8.263499657e-06)
(0 -0 -8.978183757e-06)
(0 -0 -9.661807797e-06)
(0 -0 -1.030893981e-05)
(0 -0 -1.091450777e-05)
(0 -0 -1.147361374e-05)
(0 -0 -1.198145684e-05)
(0 -0 -1.243334112e-05)
(0 -0 -1.28247651e-05)
(0 -0 -1.315158806e-05)
(0 -0 -1.341023757e-05)
(0 -0 -1.359789603e-05)
(0 -0 -1.371261049e-05)
(0 -0 -1.375330734e-05)
(0 -0 -1.371973566e-05)
(0 -0 -1.361239022e-05)
(0 -0 -1.343246154e-05)
(0 -0 -1.318182876e-05)
(0 -0 -1.286307574e-05)
(0 -0 -1.247949614e-05)
(0 -0 -1.203506747e-05)
(0 -0 -1.153439592e-05)
(0 -0 -1.098264229e-05)
(0 -0 -1.038543412e-05)
(0 -0 -9.748771897e-06)
(0 -0 -9.078944909e-06)
(0 -0 -8.38246217e-06)
(0 -0 -7.665982404e-06)
(0 -0 -6.936233321e-06)
(0 -0 -6.199937433e-06)
(0 -0 -5.46375218e-06)
(0 -0 -4.734194804e-06)
(0 -0 -4.017538475e-06)
(0 -0 -3.319713233e-06)
(0 -0 -2.646225489e-06)
(0 -0 -2.00206878e-06)
(0 -0 -1.39168129e-06)
(0 -0 -8.188428458e-07)
(0 -0 -2.867023779e-07)
(0 -0 2.022030137e-07)
(0 -0 6.461439473e-07)
(0 -0 -1.924706503e-06)
(0 -0 -2.574259931e-06)
(0 -0 -3.307508197e-06)
(0 -0 -4.077832643e-06)
(0 -0 -4.86861428e-06)