/*--------------------------------*- C++ -*----------------------------------*\
| =========                 |                                                 |
| \\      /  F ield         | foam-extend: Open Source CFD                    |
|  \\    /   O peration     | Version:     4.1                                |
|   \\  /    A nd           | Web:         http://www.foam-extend.org         |
|    \\/     M anipulation  |                                                 |
\*---------------------------------------------------------------------------*/
FoamFile
{
    version     2.0;
    format      ascii;
    class       volScalarField;
    location    "250000";
    object      p;
}
// * * * * * * * * * * * * * * * * * * * * * * * * * * * * * * * * * * * * * //

dimensions      [0 2 -2 0 0 0 0];

internalField   nonuniform List<scalar> 
15920
(
2.126837236e-08
1.84057155e-08
1.622613204e-08
1.51296322e-08
1.434188049e-08
1.352489422e-08
1.273208124e-08
1.204137268e-08
1.145488256e-08
1.095090698e-08
1.051908959e-08
1.015647306e-08
9.858194402e-09
9.616212653e-09
9.421500501e-09
9.2653904e-09
9.139875086e-09
9.037713246e-09
8.952583538e-09
8.879177608e-09
8.813180932e-09
8.751180866e-09
8.690546608e-09
8.629303989e-09
8.566013985e-09
8.499665298e-09
8.42957968e-09
8.355330617e-09
8.276677071e-09
8.193511005e-09
8.105816407e-09
8.013638492e-09
7.917061744e-09
7.816194779e-09
7.711160273e-09
7.602088812e-09
7.489111706e-09
7.372362759e-09
7.251978473e-09
7.128096639e-09
7.000864946e-09
6.870444325e-09
6.737010396e-09
6.600754096e-09
6.461882158e-09
6.320617694e-09
6.177200721e-09
6.031888261e-09
5.8849537e-09
5.736685283e-09
1.589690057e-08
1.558038223e-08
1.504404839e-08
1.45267851e-08
1.401865031e-08
1.344899555e-08
1.284546371e-08
1.226058213e-08
1.171910816e-08
1.122813717e-08
1.079245779e-08
1.041590516e-08
1.00980894e-08
9.83432796e-09
9.617533706e-09
9.44000214e-09
9.294252058e-09
9.173354237e-09
9.071143422e-09
8.982355434e-09
8.90265145e-09
8.828552964e-09
8.75733651e-09
8.686921145e-09
8.615730412e-09
8.542606568e-09
8.466730364e-09
8.387543903e-09
8.304686231e-09
8.21794189e-09
8.12720015e-09
8.032423598e-09
7.933624854e-09
7.830849889e-09
7.724166784e-09
7.613659349e-09
7.499427868e-09
7.381584406e-09
7.260250753e-09
7.135559256e-09
7.007648488e-09
6.876667312e-09
6.742779648e-09
6.606167106e-09
6.467030074e-09
6.325587932e-09
6.182078547e-09
6.036757583e-09
5.889898099e-09
5.741789246e-09
1.545343012e-08
1.528013257e-08
1.482809954e-08
1.426665449e-08
1.373134541e-08
1.322184525e-08
1.271670419e-08
1.222741662e-08
1.177155295e-08
1.135580311e-08
1.098068928e-08
1.064630961e-08
1.035229685e-08
1.009644273e-08
9.875190071e-09
9.684450835e-09
9.519998956e-09
9.377593373e-09
9.253107728e-09
9.142691271e-09
9.042888101e-09
8.950688778e-09
8.863533619e-09
8.779295926e-09
8.696284393e-09
8.613164535e-09
8.528890235e-09
8.442659571e-09
8.353875828e-09
8.26210874e-09
8.167059236e-09
8.068529768e-09
7.966400233e-09
7.860609155e-09
7.751139819e-09
7.638010725e-09
7.521269217e-09
7.400985671e-09
7.277249609e-09
7.150168281e-09
7.019866171e-09
6.88648717e-09
6.750196646e-09
6.611180803e-09
6.46964721e-09
6.325825315e-09
6.179965083e-09
6.032334301e-09
5.883218521e-09
5.732920333e-09
1.439789251e-08
1.425657484e-08
1.398044984e-08
1.363234344e-08
1.326762713e-08
1.28972238e-08
1.251673187e-08
1.213444316e-08
1.176514565e-08
1.141808026e-08
1.109659248e-08
1.080219136e-08
1.053583194e-08
1.029730009e-08
1.00851144e-08
9.896963154e-09
9.730097881e-09
9.581558725e-09
9.448331954e-09
9.327497143e-09
9.216344633e-09
9.112444731e-09
9.013676887e-09
8.918234258e-09
8.82461078e-09
8.731563886e-09
8.638079379e-09
8.543344302e-09
8.4467198e-09
8.347712694e-09
8.24594932e-09
8.141153246e-09
8.033126634e-09
7.921735268e-09
7.806896676e-09
7.688571272e-09
7.566755981e-09
7.441479584e-09
7.312799515e-09
7.180800706e-09
7.045594174e-09
6.907317349e-09
6.766133337e-09
6.622229746e-09
6.475820462e-09
6.327145133e-09
6.176467616e-09
6.024076022e-09
5.870278997e-09
5.715402956e-09
1.376945468e-08
1.370263629e-08
1.353629387e-08
1.329045004e-08
1.300390273e-08
1.269914222e-08
1.23835804e-08
1.206393767e-08
1.174969319e-08
1.1448665e-08
1.116513029e-08
1.090125658e-08
1.065828705e-08
1.04365759e-08
1.023546193e-08
1.005349274e-08
9.888760755e-09
9.73913538e-09
9.602398978e-09
9.476349868e-09
9.358888719e-09
9.248078431e-09
9.142175772e-09
9.039642382e-09
8.939143186e-09
8.839536395e-09
8.739858029e-09
8.63930454e-09
8.537214559e-09
8.43305013e-09
8.326379298e-09
8.216860776e-09
8.10423077e-09
7.988291753e-09
7.868903634e-09
7.745976575e-09
7.619465119e-09
7.489363749e-09
7.355703141e-09
7.218547963e-09
7.077995707e-09
6.934195892e-09
6.787310447e-09
6.637532354e-09
6.485094111e-09
6.330260006e-09
6.17332199e-09
6.014599031e-09
5.854434776e-09
5.693193638e-09
1.327017e-08
1.322048888e-08
1.309714675e-08
1.291131402e-08
1.268913592e-08
1.244809015e-08
1.219529059e-08
1.193564126e-08
1.167559508e-08
1.142145777e-08
1.117757004e-08
1.094647329e-08
1.072968602e-08
1.052798795e-08
1.034140751e-08
1.016931543e-08
1.001062859e-08
9.863987956e-09
9.727873925e-09
9.600692215e-09
9.480849434e-09
9.366813463e-09
9.257153485e-09
9.150563129e-09
9.045872281e-09
8.942049818e-09
8.83819867e-09
8.733546751e-09
8.627436755e-09
8.51931574e-09
8.408724035e-09
8.295284622e-09
8.178693916e-09
8.05871344e-09
7.93516323e-09
7.807917219e-09
7.676899104e-09
7.542078517e-09
7.403467727e-09
7.261123239e-09
7.115086262e-09
6.96555307e-09
6.812679413e-09
6.656661416e-09
6.497748167e-09
6.336227859e-09
6.172420694e-09
6.006677772e-09
5.839379438e-09
5.670936139e-09
1.287343248e-08
1.283679065e-08
1.274661229e-08
1.260839921e-08
1.243795357e-08
1.224716362e-08
1.204231926e-08
1.18281638e-08
1.161003388e-08
1.139313236e-08
1.118142172e-08
1.097751709e-08
1.078311516e-08
1.059926129e-08
1.042639709e-08
1.026440958e-08
1.011275337e-08
9.970584475e-09
9.836863129e-09
9.710431879e-09
9.590081436e-09
9.474605095e-09
9.362838702e-09
9.253687319e-09
9.146141632e-09
9.03928606e-09
8.932300537e-09
8.824458507e-09
8.715123132e-09
8.603742379e-09
8.489843017e-09
8.373023713e-09
8.252949846e-09
8.129349254e-09
8.002006169e-09
7.870757849e-09
7.735496262e-09
7.596161778e-09
7.452739415e-09
7.305258124e-09
7.153850221e-09
6.998583285e-09
6.839649151e-09
6.677283344e-09
6.51175111e-09
6.343357481e-09
6.172449625e-09
5.999412367e-09
5.82466269e-09
5.648640406e-09
1.255459621e-08
1.252695809e-08
1.245840434e-08
1.235162063e-08
1.221697035e-08
1.206295369e-08
1.189484323e-08
1.171683366e-08
1.153322619e-08
1.134812237e-08
1.116484082e-08
1.098578798e-08
1.081264812e-08
1.064655105e-08
1.048813068e-08
1.033756586e-08
1.019465846e-08
1.005892819e-08
9.929695306e-09
9.806145243e-09
9.687381912e-09
9.57247299e-09
9.460486116e-09
9.350515315e-09
9.241699086e-09
9.133232325e-09
9.024373696e-09
8.914448676e-09
8.802849869e-09
8.689035348e-09
8.572528004e-09
8.452913771e-09
8.329834675e-09
8.202991105e-09
8.072144876e-09
7.937108515e-09
7.797741889e-09
7.653957963e-09
7.505727407e-09
7.35307589e-09
7.196083671e-09
7.034864705e-09
6.869606632e-09
6.700551376e-09
6.52798449e-09
6.35223935e-09
6.173697569e-09
5.992784764e-09
5.80996622e-09
5.625741573e-09
1.229435883e-08
1.227267881e-08
1.22188333e-08
1.21343591e-08
1.202654312e-08
1.190146007e-08
1.176307581e-08
1.161471411e-08
1.14597814e-08
1.130154743e-08
1.11427748e-08
1.098560294e-08
1.08316231e-08
1.068197114e-08
1.053737535e-08
1.039819061e-08
1.026445014e-08
1.013593072e-08
1.001221486e-08
9.892742476e-09
9.776854442e-09
9.663830822e-09
9.552922989e-09
9.443378408e-09
9.334458807e-09
9.225454228e-09
9.115695245e-09
9.00455703e-09
8.891462569e-09
8.775883895e-09
8.657341841e-09
8.535416701e-09
8.40973933e-09
8.279985069e-09
8.14588048e-09
8.007211542e-09
7.863818367e-09
7.715595813e-09
7.562496114e-09
7.404529007e-09
7.241763285e-09
7.074327298e-09
6.902410636e-09
6.726265157e-09
6.546202107e-09
6.36259012e-09
6.175852208e-09
5.986461289e-09
5.794936566e-09
5.601839063e-09
1.207998803e-08
1.206263262e-08
1.201953483e-08
1.195162644e-08
1.186419111e-08
1.17615806e-08
1.164669215e-08
1.152211032e-08
1.13905644e-08
1.125470134e-08
1.111680664e-08
1.097872084e-08
1.084187608e-08
1.070734531e-08
1.057587089e-08
1.044788883e-08
1.032356432e-08
1.020283673e-08
1.008546465e-08
9.971066341e-09
9.859155282e-09
9.749171743e-09
9.640509799e-09
9.532538961e-09
9.424620428e-09
9.316119986e-09
9.206433635e-09
9.094980151e-09
8.981206595e-09
8.86459974e-09
8.744685769e-09
8.621022507e-09
8.493216762e-09
8.360929152e-09
8.223867952e-09
8.081791903e-09
7.934515051e-09
7.78190915e-09
7.623906105e-09
7.460501231e-09
7.291756467e-09
7.117801975e-09
6.938836649e-09
6.755129676e-09
6.567019727e-09
6.374913469e-09
6.179282749e-09
5.980658512e-09
5.779623983e-09
5.576809943e-09
1.190232957e-08
1.18882176e-08
1.185316505e-08
1.179774329e-08
1.172590953e-08
1.164086154e-08
1.154472662e-08
1.143949268e-08
1.132732469e-08
1.121034734e-08
1.109042417e-08
1.096910016e-08
1.084762293e-08
1.072696469e-08
1.06078336e-08
1.049068797e-08
1.037576052e-08
1.026308891e-08
1.015254759e-08
1.004387859e-08
9.936719834e-09
9.830630459e-09
9.725113245e-09
9.619633542e-09
9.513630465e-09
9.406502601e-09
9.297725668e-09
9.186747597e-09
9.073035564e-09
8.956073526e-09
8.835375225e-09
8.710492076e-09
8.581016245e-09
8.446581859e-09
8.306867106e-09
8.161600377e-09
8.010566426e-09
7.853610537e-09
7.69064277e-09
7.521642521e-09
7.346662621e-09
7.165832845e-09
6.979362629e-09
6.787542321e-09
6.590742395e-09
6.389412292e-09
6.184078919e-09
5.975341509e-09
5.763862078e-09
5.550356056e-09
1.17545082e-08
1.174288348e-08
1.171400395e-08
1.166822701e-08
1.160859927e-08
1.153752152e-08
1.145655783e-08
1.136721742e-08
1.127119946e-08
1.117020074e-08
1.106573424e-08
1.09590838e-08
1.085131587e-08
1.074328697e-08
1.06356444e-08
1.052883243e-08
1.042310756e-08
1.031855899e-08
1.021513116e-08
1.011264633e-08
1.001082624e-08
9.909312299e-09
9.80768511e-09
9.705488319e-09
9.60226301e-09
9.497251233e-09
9.3901671e-09
9.28042847e-09
9.167489186e-09
9.050834019e-09
8.929970444e-09
8.804431922e-09
8.673781291e-09
8.537617955e-09
8.395585259e-09
8.24737639e-09
8.092740876e-09
7.931491488e-09
7.763510775e-09
7.588757145e-09
7.407270447e-09
7.219177226e-09
7.024695581e-09
6.824138349e-09
6.617913126e-09
6.406520028e-09
6.190549328e-09
5.970677636e-09
5.747659031e-09
5.52231228e-09
1.16312538e-08
1.162158167e-08
1.159755199e-08
1.155938791e-08
1.150948136e-08
1.144966568e-08
1.138109623e-08
1.130491505e-08
1.122245246e-08
1.113506229e-08
1.104396903e-08
1.095022933e-08
1.085473919e-08
1.075823505e-08
1.066128853e-08
1.056430647e-08
1.046753932e-08
1.037109491e-08
1.027495404e-08
1.017898614e-08
1.008296481e-08
9.986582334e-09
9.889459848e-09
9.791164027e-09
9.691192591e-09
9.589288534e-09
9.4846883e-09
9.376912766e-09
9.265447757e-09
9.149771711e-09
9.029371227e-09
8.903748451e-09
8.772429843e-09
8.634974715e-09
8.490982908e-09
8.34010252e-09
8.182038469e-09
8.01656147e-09
7.843517075e-09
7.662834549e-09
7.474534854e-09
7.278737469e-09
7.075666668e-09
6.865657038e-09
6.649156118e-09
6.426722757e-09
6.199023025e-09
5.966825016e-09
5.730989861e-09
5.492457667e-09
1.152843275e-08
1.152032609e-08
1.150018427e-08
1.146814378e-08
1.14261123e-08
1.137551131e-08
1.131720015e-08
1.125204369e-08
1.118108282e-08
1.110539533e-08
1.102596726e-08
1.094366069e-08
1.085921846e-08
1.077326192e-08
1.068628215e-08
1.059863606e-08
1.051055024e-08
1.042212971e-08
1.033336813e-08
1.024415832e-08
1.015430364e-08
1.006353138e-08
9.971479228e-09
9.877770978e-09
9.781956116e-09
9.683583276e-09
9.58210357e-09
9.476987798e-09
9.367695156e-09
9.253676537e-09
9.134384125e-09
9.009279673e-09
8.877843064e-09
8.739581124e-09
8.594037119e-09
8.440800962e-09
8.279519952e-09
8.109910013e-09
7.931767408e-09
7.744980672e-09
7.549541862e-09
7.345556149e-09
7.13325001e-09
6.912978744e-09
6.685231866e-09
6.45063341e-09
6.209937362e-09
5.964020972e-09
5.713874442e-09
5.460583679e-09
1.144273374e-08
1.143590616e-08
1.141894023e-08
1.139191718e-08
1.135637651e-08
1.131343381e-08
1.126373261e-08
1.120792924e-08
1.114683825e-08
1.108131608e-08
1.101215385e-08
1.094005045e-08
1.086561539e-08
1.078936426e-08
1.071170867e-08
1.06329505e-08
1.055328266e-08
1.047279352e-08
1.039147271e-08
1.030921843e-08
1.022584496e-08
1.01410883e-08
1.005463941e-08
9.966085372e-09
9.874991373e-09
9.780882395e-09
9.683234483e-09
9.581495171e-09
9.475092097e-09
9.363438887e-09
9.2459425e-09
9.122011252e-09
8.991063963e-09
8.852540083e-09
8.705910817e-09
8.550691474e-09
8.386454941e-09
8.21284583e-09
8.029594976e-09
7.836534444e-09
7.633612783e-09
7.420909057e-09
7.19864447e-09
6.967192259e-09
6.727085855e-09
6.479021826e-09
6.223855242e-09
5.962591086e-09
5.69637355e-09
5.426467112e-09
1.137145172e-08
1.136568788e-08
1.135136454e-08
1.132852688e-08
1.129842751e-08
1.126195082e-08
1.121958204e-08
1.11718205e-08
1.111930425e-08
1.106271355e-08
1.100268163e-08
1.093977187e-08
1.08744791e-08
1.080722439e-08
1.073834494e-08
1.066808745e-08
1.059660668e-08
1.05239665e-08
1.045014271e-08
1.037502711e-08
1.029843838e-08
1.022011178e-08
1.013971777e-08
1.00568636e-08
9.971105191e-09
9.881947289e-09
9.788847233e-09
9.691224064e-09
9.58846626e-09
9.479938227e-09
9.36498781e-09
9.242954947e-09
9.113181483e-09
8.975022238e-09
8.827857681e-09
8.671108548e-09
8.504252254e-09
8.326840364e-09
8.1385165e-09
7.939035092e-09
7.728281493e-09
7.50629204e-09
7.273270891e-09
7.02960281e-09
6.775864012e-09
6.51282968e-09
6.241472117e-09
5.962949278e-09
5.678589994e-09
5.389873866e-09
1.131233618e-08
1.13074732e-08
1.129538798e-08
1.127610255e-08
1.1250642e-08
1.121971286e-08
1.118368311e-08
1.114293372e-08
1.109796561e-08
1.104931956e-08
1.099750133e-08
1.094296241e-08
1.088610068e-08
1.082725522e-08
1.076669636e-08
1.070461854e-08
1.064113706e-08
1.057628798e-08
1.051002937e-08
1.044224244e-08
1.037272447e-08
1.030120758e-08
1.022735622e-08
1.015076783e-08
1.007097862e-08
9.987468024e-09
9.899663014e-09
9.806943135e-09
9.708646135e-09
9.604074518e-09
9.492503114e-09
9.373187663e-09
9.245374973e-09
9.108315165e-09
8.961276113e-09
8.803560088e-09
8.63452275e-09
8.45359442e-09
8.260302932e-09
8.05429753e-09
7.835374313e-09
7.603503068e-09
7.358852019e-09
7.101806393e-09
6.832982018e-09
6.553236834e-09
6.263675257e-09
5.965638166e-09
5.660682001e-09
5.35055136e-09
1.126348241e-08
1.12593954e-08
1.124923836e-08
1.123301983e-08
1.121158025e-08
1.118548651e-08
1.115501963e-08
1.112047209e-08
1.108223864e-08
1.104074952e-08
1.099640789e-08
1.09495739e-08
1.09005653e-08
1.084965221e-08
1.07970464e-08
1.074289457e-08
1.068727525e-08
1.063019696e-08
1.057159481e-08
1.051132842e-08
1.044918552e-08
1.038488536e-08
1.031807582e-08
1.024833509e-08
1.017517542e-08
1.009804547e-08
1.001633254e-08
9.929366104e-09
9.83642242e-09
9.736730119e-09
9.629476707e-09
9.513816663e-09
9.388881995e-09
9.253795636e-09
9.107687396e-09
8.949712271e-09
8.779071785e-09
8.595039536e-09
8.39699071e-09
8.184433399e-09
7.95704028e-09
7.71468179e-09
7.457460442e-09
7.185740846e-09
6.900171083e-09
6.601697848e-09
6.291575161e-09
5.971358228e-09
5.64288001e-09
5.308215726e-09
1.122325035e-08
1.121984248e-08
1.121137485e-08
1.119784822e-08
1.11799497e-08
1.115813524e-08
1.113262214e-08
1.110363735e-08
1.107149332e-08
1.103653273e-08
1.099907683e-08
1.09594123e-08
1.091779216e-08
1.087443163e-08
1.082949126e-08
1.078307519e-08
1.073522967e-08
1.068593647e-08
1.063510826e-08
1.058258813e-08
1.052814916e-08
1.047149223e-08
1.041224605e-08
1.034996708e-08
1.028413949e-08
1.021417531e-08
1.013941551e-08
1.005913202e-08
9.972530479e-09
9.878753909e-09
9.776887991e-09
9.665968653e-09
9.544992461e-09
9.412930125e-09
9.268743305e-09
9.111404923e-09
8.939923617e-09
8.753373636e-09
8.550930939e-09
8.33191364e-09
8.09582337e-09
7.842387062e-09
7.571601385e-09
7.283777173e-09
6.979575525e-09
6.660032358e-09
6.326572587e-09
5.981007146e-09
5.625506468e-09
5.262556057e-09
1.11902049e-08
1.118740151e-08
1.118043718e-08
1.116930891e-08
1.11545751e-08
1.113660292e-08
1.111556335e-08
1.109163513e-08
1.106506719e-08
1.103613352e-08
1.100509068e-08
1.09721664e-08
1.093756138e-08
1.09014582e-08
1.086396556e-08
1.08251501e-08
1.0785036e-08
1.074358156e-08
1.070067994e-08
1.06561585e-08
1.060977478e-08
1.056121354e-08
1.051008487e-08
1.045592166e-08
1.03981775e-08
1.033622527e-08
1.026935625e-08
1.019677967e-08
1.011762278e-08
1.003093251e-08
9.935679361e-09
9.830763905e-09
9.715025804e-09
9.587256002e-09
9.446213551e-09
9.290648346e-09
9.119329896e-09
8.931081876e-09
8.724823542e-09
8.499619007e-09
8.254732051e-09
7.989682823e-09
7.704306636e-09
7.398814849e-09
7.073849838e-09
6.730525479e-09
6.370452829e-09
5.995745771e-09
5.608993908e-09
5.213203912e-09
1.116307133e-08
1.116081384e-08
1.115520525e-08
1.114624302e-08
1.113437621e-08
1.111990001e-08
1.110295201e-08
1.108367644e-08
1.106227419e-08
1.103896641e-08
1.101395956e-08
1.098743293e-08
1.095952326e-08
1.093047851e-08
1.090026322e-08
1.086896304e-08
1.083657835e-08
1.080304765e-08
1.076825138e-08
1.073200507e-08
1.069405424e-08
1.065407041e-08
1.061164689e-08
1.05662946e-08
1.05174381e-08
1.046441196e-08
1.040645701e-08
1.034271683e-08
1.027223525e-08
1.019395555e-08
1.010672196e-08
1.000928351e-08
9.90030054e-09
9.778354969e-09
9.641966326e-09
9.48961576e-09
9.319778465e-09
9.130963436e-09
8.921760873e-09
8.690900287e-09
8.437320406e-09
8.160246271e-09
7.859269343e-09
7.534430856e-09
7.186302912e-09
6.816054013e-09
6.425492988e-09
6.017087999e-09
5.59394465e-09
5.15973478e-09
1.114069991e-08
1.11389408e-08
1.113456981e-08
1.112758797e-08
1.111834976e-08
1.110709125e-08
1.109392707e-08
1.107897804e-08
1.106240987e-08
1.10444051e-08
1.102513773e-08
1.10047656e-08
1.098343999e-08
1.096113598e-08
1.093806124e-08
1.091422273e-08
1.088959005e-08
1.086409213e-08
1.083760199e-08
1.080992804e-08
1.0780809e-08
1.074990824e-08
1.071680762e-08
1.068100142e-08
1.064189016e-08
1.05987739e-08
1.055084529e-08
1.049718311e-08
1.043674686e-08
1.036837261e-08
1.029077023e-08
1.020252274e-08
1.010208926e-08
9.987813098e-09
9.857936118e-09
9.710621324e-09
9.543985799e-09
9.356145046e-09
9.145268506e-09
8.909648348e-09
8.647785379e-09
8.358490234e-09
8.040992624e-09
7.695055947e-09
7.321095088e-09
6.920282356e-09
6.494624866e-09
6.047005595e-09
5.581171027e-09
5.10164768e-09
1.112203999e-08
1.112074041e-08
1.111751114e-08
1.111235855e-08
1.110555432e-08
1.109728587e-08
1.108765314e-08
1.107676212e-08
1.106475319e-08
1.105178045e-08
1.103798985e-08
1.102351211e-08
1.100844754e-08
1.099288334e-08
1.097689475e-08
1.096049536e-08
1.094366198e-08
1.092632403e-08
1.090835366e-08
1.088956011e-08
1.086968352e-08
1.084838732e-08
1.08252504e-08
1.079975901e-08
1.077129772e-08
1.073913952e-08
1.070243575e-08
1.06602064e-08
1.061133086e-08
1.05545389e-08
1.048840215e-08
1.041132754e-08
1.032155515e-08
1.021716221e-08
1.009607385e-08
9.956081487e-09
9.794872731e-09
9.610077711e-09
9.399333013e-09
9.160362902e-09
8.891081917e-09
8.589722985e-09
8.254985592e-09
7.88619602e-09
7.483476488e-09
7.047909382e-09
6.581670615e-09
6.088114004e-09
5.571783961e-09
5.038323624e-09
1.110612234e-08
1.110524995e-08
1.110308219e-08
1.109963256e-08
1.109509971e-08
1.108963068e-08
1.108331709e-08
1.107625722e-08
1.106857495e-08
1.106040357e-08
1.105186543e-08
1.104309366e-08
1.103417546e-08
1.102519858e-08
1.101621298e-08
1.100723843e-08
1.099825865e-08
1.09892091e-08
1.097997067e-08
1.097036367e-08
1.096013975e-08
1.094897314e-08
1.093645116e-08
1.092206364e-08
1.090519092e-08
1.088509115e-08
1.086088701e-08
1.083155192e-08
1.079589535e-08
1.075254754e-08
1.069994448e-08
1.063631455e-08
1.055966865e-08
1.046779601e-08
1.035826727e-08
1.02284464e-08
1.007551476e-08
9.896514137e-09
9.688414882e-09
9.448209254e-09
9.173032632e-09
8.860320976e-09
8.508006237e-09
8.114739587e-09
7.680134638e-09
7.205017845e-09
6.691653025e-09
6.143905053e-09
5.567306662e-09
4.968973774e-09
1.109204543e-08
1.109157194e-08
1.109039658e-08
1.108854151e-08
1.108613994e-08
1.108330498e-08
1.108012535e-08
1.107669798e-08
1.107313806e-08
1.106956899e-08
1.106611148e-08
1.106286348e-08
1.105994211e-08
1.105742521e-08
1.105536817e-08
1.105380094e-08
1.105271854e-08
1.105207201e-08
1.105176178e-08
1.10516301e-08
1.105145214e-08
1.105092611e-08
1.104966175e-08
1.104716735e-08
1.104283529e-08
1.103592664e-08
1.102555429e-08
1.101066398e-08
1.099001304e-08
1.096214776e-08
1.0925381e-08
1.087777058e-08
1.081709871e-08
1.074085429e-08
1.06462231e-08
1.053008911e-08
1.038904895e-08
1.021944495e-08
1.001742778e-08
9.779056485e-09
9.500438979e-09
9.177922001e-09
8.808340775e-09
8.389323055e-09
7.919636448e-09
7.399566749e-09
6.831288161e-09
6.21916589e-09
5.569930738e-09
4.892642205e-09
1.10789655e-08
1.107886559e-08
1.10786215e-08
1.107826433e-08
1.10778681e-08
1.107751755e-08
1.107730322e-08
1.107732595e-08
1.107769722e-08
1.107853453e-08
1.107995633e-08
1.108208342e-08
1.108501244e-08
1.108883477e-08
1.109362362e-08
1.109942693e-08
1.110626088e-08
1.111410272e-08
1.112288341e-08
1.113247942e-08
1.114270316e-08
1.115329175e-08
1.116389389e-08
1.117405502e-08
1.118320091e-08
1.119061914e-08
1.11954379e-08
1.119660148e-08
1.119284233e-08
1.118265064e-08
1.116424241e-08
1.113552654e-08
1.109407065e-08
1.103706677e-08
1.096130193e-08
1.086314056e-08
1.073852126e-08
1.058297159e-08
1.039165396e-08
1.015945989e-08
9.881161818e-09
9.551632705e-09
9.166152811e-09
8.720813098e-09
8.213008037e-09
7.642006008e-09
7.009553314e-09
6.320419916e-09
5.582776165e-09
4.808257971e-09
1.106609175e-08
1.106634258e-08
1.106697303e-08
1.106802308e-08
1.10695135e-08
1.10715059e-08
1.107409668e-08
1.107739473e-08
1.108151235e-08
1.108656578e-08
1.109266987e-08
1.11000019e-08
1.110861789e-08
1.111863806e-08
1.113016277e-08
1.114326608e-08
1.115799483e-08
1.117436311e-08
1.11923442e-08
1.121186194e-08
1.123278067e-08
1.125489304e-08
1.127790592e-08
1.130142453e-08
1.132493397e-08
1.134777741e-08
1.136913015e-08
1.138796981e-08
1.140304255e-08
1.141282449e-08
1.141547777e-08
1.140880246e-08
1.139018588e-08
1.135654925e-08
1.130429314e-08
1.122924864e-08
1.112664243e-08
1.099108114e-08
1.081656597e-08
1.059656093e-08
1.032413575e-08
9.992200276e-09
9.593861131e-09
9.122932865e-09
8.574613547e-09
7.946325237e-09
7.238691301e-09
6.456541784e-09
5.609747283e-09
4.713558464e-09
1.105268383e-08
1.10532637e-08
1.105471311e-08
1.105708137e-08
1.106034178e-08
1.106453735e-08
1.106977329e-08
1.107617024e-08
1.108384855e-08
1.10929356e-08
1.110357775e-08
1.111585304e-08
1.11299554e-08
1.114599595e-08
1.116410251e-08
1.118438549e-08
1.120693e-08
1.123179661e-08
1.125901287e-08
1.128856334e-08
1.132037963e-08
1.135432817e-08
1.139019582e-08
1.142767307e-08
1.146633385e-08
1.150561082e-08
1.154476553e-08
1.158285392e-08
1.161868661e-08
1.1650782e-08
1.167730976e-08
1.16960257e-08
1.170420073e-08
1.169854401e-08
1.167511734e-08
1.162924438e-08
1.155542712e-08
1.144727985e-08
1.129748976e-08
1.109782733e-08
1.083924276e-08
1.051208277e-08
1.010647414e-08
9.612935366e-09
9.023257844e-09
8.331683602e-09
7.536387178e-09
6.641202524e-09
5.657399045e-09
4.605022291e-09
1.103804978e-08
1.10389366e-08
1.104114855e-08
1.104474456e-08
1.104965584e-08
1.105591053e-08
1.106362461e-08
1.107293215e-08
1.108396232e-08
1.109684874e-08
1.111173916e-08
1.112878833e-08
1.114816625e-08
1.117001904e-08
1.119450367e-08
1.122178183e-08
1.125198943e-08
1.128524145e-08
1.132163042e-08
1.136121532e-08
1.140401097e-08
1.14499768e-08
1.149900284e-08
1.15508921e-08
1.160533921e-08
1.166190425e-08
1.171998108e-08
1.177875883e-08
1.183717567e-08
1.18938634e-08
1.194708043e-08
1.199463104e-08
1.203377098e-08
1.206110019e-08
1.207243949e-08
1.206269031e-08
1.202568602e-08
1.195404811e-08
1.183905675e-08
1.16705573e-08
1.143694932e-08
1.11253163e-08
1.072176975e-08
1.021212035e-08
9.5829909e-09
8.823467203e-09
7.927295544e-09
6.895567572e-09
5.73967826e-09
4.484349275e-09
1.102154557e-08
1.102271613e-08
1.10256318e-08
1.103036107e-08
1.103679801e-08
1.104495915e-08
1.105497268e-08
1.106698768e-08
1.108114515e-08
1.10975925e-08
1.111649363e-08
1.113802843e-08
1.116239469e-08
1.118979101e-08
1.122039386e-08
1.125440432e-08
1.129202834e-08
1.133344836e-08
1.137882873e-08
1.142831452e-08
1.148202007e-08
1.154001687e-08
1.160232076e-08
1.166887483e-08
1.173952784e-08
1.181400836e-08
1.189189305e-08
1.197256591e-08
1.205516651e-08
1.213852722e-08
1.222109807e-08
1.230085339e-08
1.237517457e-08
1.244070835e-08
1.249320051e-08
1.252729972e-08
1.253632939e-08
1.251203608e-08
1.244432558e-08
1.232100374e-08
1.212756847e-08
1.184712553e-08
1.146052451e-08
1.094690215e-08
1.028488058e-08
9.454818716e-09
8.44227885e-09
7.243042652e-09
5.86827082e-09
4.349171842e-09
1.100257665e-08
1.100400597e-08
1.100756248e-08
1.10133243e-08
1.102115316e-08
1.103105676e-08
1.104317642e-08
1.105767749e-08
1.107471513e-08
1.109445253e-08
1.111707484e-08
1.114278694e-08
1.117181418e-08
1.120439359e-08
1.124076749e-08
1.128116906e-08
1.132585829e-08
1.137510397e-08
1.142915485e-08
1.148824982e-08
1.155261548e-08
1.162245295e-08
1.16979248e-08
1.177914022e-08
1.186613566e-08
1.195885035e-08
1.205709549e-08
1.216051395e-08
1.226852751e-08
1.238027054e-08
1.249450827e-08
1.260953345e-08
1.272303175e-08
1.283191036e-08
1.293208795e-08
1.30182379e-08
1.308347027e-08
1.311894826e-08
1.311344586e-08
1.305285456e-08
1.291966875e-08
1.269252137e-08
1.234587662e-08
1.185006802e-08
1.117194998e-08
1.027700643e-08
9.133234532e-09
7.72094752e-09
6.043704584e-09
4.149606061e-09
1.098060046e-08
1.098226108e-08
1.098639079e-08
1.099307733e-08
1.100215457e-08
1.101362349e-08
1.102763872e-08
1.104438239e-08
1.1064025e-08
1.10867469e-08
1.111275562e-08
1.114228456e-08
1.117558652e-08
1.121293665e-08
1.125462959e-08
1.130096837e-08
1.135226646e-08
1.140886847e-08
1.14711079e-08
1.153933782e-08
1.161390676e-08
1.169515646e-08
1.17834135e-08
1.187897639e-08
1.198209968e-08
1.209297263e-08
1.221169054e-08
1.233821783e-08
1.24723404e-08
1.261360189e-08
1.276121923e-08
1.291397304e-08
1.307006502e-08
1.322692995e-08
1.338099064e-08
1.35273433e-08
1.365935041e-08
1.376811641e-08
1.38418316e-08
1.386496881e-08
1.381733258e-08
1.367301222e-08
1.339938797e-08
1.295636657e-08
1.229617306e-08
1.136419938e-08
1.010014173e-08
8.448733069e-09
6.363383336e-09
3.894187418e-09
1.095513e-08
1.095699224e-08
1.096162307e-08
1.096911903e-08
1.097929017e-08
1.099213245e-08
1.10078135e-08
1.102653202e-08
1.104847422e-08
1.107383815e-08
1.11028536e-08
1.113578181e-08
1.117291013e-08
1.12145502e-08
1.126104008e-08
1.131274273e-08
1.137002084e-08
1.143339581e-08
1.15031826e-08
1.157987213e-08
1.166395344e-08
1.175591862e-08
1.185626795e-08
1.196550607e-08
1.208412903e-08
1.22126076e-08
1.235136383e-08
1.250074095e-08
1.266096462e-08
1.283208816e-08
1.301391415e-08
1.320588818e-08
1.340695993e-08
1.361539574e-08
1.382851922e-08
1.404235969e-08
1.425117967e-08
1.444683152e-08
1.461788564e-08
1.474846274e-08
1.481669535e-08
1.479274741e-08
1.463653658e-08
1.429520009e-08
1.370201924e-08
1.277568717e-08
1.142554439e-08
9.556741374e-09
7.04709705e-09
3.880243097e-09
1.092573943e-08
1.092777216e-08
1.093282768e-08
1.094100967e-08
1.095210837e-08
1.096611635e-08
1.098321362e-08
1.100361449e-08
1.10275202e-08
1.105514575e-08
1.108674244e-08
1.112259864e-08
1.116303491e-08
1.120840311e-08
1.12590888e-08
1.131551564e-08
1.137816131e-08
1.14474077e-08
1.152389703e-08
1.160817064e-08
1.170082733e-08
1.180251835e-08
1.191392753e-08
1.203577349e-08
1.216880459e-08
1.231379179e-08
1.247151308e-08
1.26427342e-08
1.282818094e-08
1.302849724e-08
1.324418475e-08
1.347551539e-08
1.372241011e-08
1.398427107e-08
1.425974024e-08
1.454635451e-08
1.484006258e-08
1.513453456e-08
1.542016099e-08
1.568260404e-08
1.59006941e-08
1.60432951e-08
1.606487406e-08
1.589866455e-08
1.544994223e-08
1.458312851e-08
1.313940627e-08
1.091482838e-08
7.779492682e-09
3.681070564e-09
1.089206981e-08
1.089424062e-08
1.089963941e-08
1.090837539e-08
1.092022326e-08
1.093517388e-08
1.095341835e-08
1.097518468e-08
1.100068746e-08
1.103015717e-08
1.106386497e-08
1.110212431e-08
1.114528591e-08
1.119373721e-08
1.124790545e-08
1.130826086e-08
1.137531828e-08
1.14496291e-08
1.153183422e-08
1.162260198e-08
1.172266342e-08
1.183280582e-08
1.19538927e-08
1.208685978e-08
1.223270978e-08
1.239251841e-08
1.25674274e-08
1.275864407e-08
1.296742722e-08
1.319506099e-08
1.344282151e-08
1.371192305e-08
1.400342986e-08
1.431812904e-08
1.465634405e-08
1.501765206e-08
1.540046636e-08
1.580141667e-08
1.62144103e-08
1.662920303e-08
1.702918948e-08
1.73878057e-08
1.766272066e-08
1.778507178e-08
1.764323076e-08
1.704079479e-08
1.567540338e-08
1.292775634e-08
8.29827906e-09
7.314396248e-10
1.085383303e-08
1.085610754e-08
1.086176289e-08
1.087091251e-08
1.088332016e-08
1.089897628e-08
1.091808104e-08
1.094087351e-08
1.096757947e-08
1.099844279e-08
1.103375203e-08
1.107384217e-08
1.111908964e-08
1.116991241e-08
1.122677432e-08
1.129019021e-08
1.13607299e-08
1.143902213e-08
1.152576711e-08
1.162173176e-08
1.172775832e-08
1.184478012e-08
1.197382195e-08
1.211601073e-08
1.227258736e-08
1.244492731e-08
1.263451152e-08
1.284298181e-08
1.307212378e-08
1.332386677e-08
1.360028115e-08
1.390356493e-08
1.42360029e-08
1.459989987e-08
1.499747745e-08
1.543069837e-08
1.590098143e-08
1.640876574e-08
1.695282803e-08
1.752921192e-08
1.812953931e-08
1.873824155e-08
1.932798245e-08
1.985104795e-08
2.022434195e-08
2.028772326e-08
1.974607654e-08
1.779590452e-08
1.321346671e-08
-5.805396031e-10
1.081081406e-08
1.081315574e-08
1.081897636e-08
1.082839239e-08
1.084116123e-08
1.085727378e-08
1.087693674e-08
1.090039713e-08
1.092788935e-08
1.095966799e-08
1.099603527e-08
1.103734278e-08
1.108398678e-08
1.113640936e-08
1.119510428e-08
1.126062314e-08
1.133358045e-08
1.14146594e-08
1.150461968e-08
1.160430568e-08
1.171465802e-08
1.183672316e-08
1.19716635e-08
1.212077321e-08
1.22854886e-08
1.246750273e-08
1.266853894e-08
1.289064254e-08
1.313607605e-08
1.340736066e-08
1.370731367e-08
1.403906452e-08
1.440606959e-08
1.481211966e-08
1.526132842e-08