/*--------------------------------*- C++ -*----------------------------------*\
| =========                 |                                                 |
| \\      /  F ield         | foam-extend: Open Source CFD                    |
|  \\    /   O peration     | Version:     4.1                                |
|   \\  /    A nd           | Web:         http://www.foam-extend.org         |
|    \\/     M anipulation  |                                                 |
\*---------------------------------------------------------------------------*/
FoamFile
{
    version     2.0;
    format      ascii;
    class       surfaceScalarField;
    location    "250000";
    object      phi;
}
// * * * * * * * * * * * * * * * * * * * * * * * * * * * * * * * * * * * * * //

dimensions      [0 3 -1 0 0 0 0];

internalField   nonuniform List<scalar> 
31542
(
1.063389668e-07
2.991033337e-09
1.007341577e-07
5.604808684e-09
9.421418102e-08
6.519976593e-09
8.739103344e-08
6.823147408e-09
8.055374354e-08
6.837290094e-09
7.396995813e-08
6.583785826e-09
6.781457346e-08
6.155385176e-09
6.21847921e-08
5.629781797e-09
5.712824891e-08
5.056543349e-09
5.265698101e-08
4.471267793e-09
4.875780663e-08
3.899174097e-09
4.539866234e-08
3.359144045e-09
4.253479959e-08
2.863862809e-09
4.011492876e-08
2.419871295e-09
3.808579113e-08
2.029138333e-09
3.639520891e-08
1.690583017e-09
3.499407272e-08
1.401136881e-09
3.383755324e-08
1.156519818e-09
3.28857127e-08
9.518405253e-10
3.210367719e-08
7.820353164e-10
3.146150973e-08
6.421672681e-10
3.09338902e-08
5.276194316e-10
3.049968316e-08
4.342071099e-10
3.014145563e-08
3.582277192e-10
2.984495035e-08
2.965054416e-10
2.959859932e-08
2.463510958e-10
2.93930845e-08
2.055148344e-10
2.922093899e-08
1.721454718e-10
2.907619224e-08
1.44746628e-10
2.895406222e-08
1.221297664e-10
2.885069413e-08
1.033676961e-10
2.876294274e-08
8.775081705e-11
2.868819487e-08
7.474712295e-11
2.862422787e-08
6.396624193e-11
2.856909981e-08
5.512758501e-11
2.852106788e-08
4.803196956e-11
2.847851826e-08
4.255024695e-11
2.843991224e-08
3.860712676e-11
2.840374344e-08
3.617011583e-11
2.83685098e-08
3.523493699e-11
2.833271015e-08
3.580071928e-11
2.829484647e-08
3.7864419e-11
2.82534272e-08
4.141972027e-11
2.82069706e-08
4.645684279e-11
2.815400979e-08
5.296095021e-11
2.80931005e-08
6.090935134e-11
2.802283139e-08
7.026905582e-11
2.79418359e-08
8.099534895e-11
2.784880544e-08
9.303032511e-11
1.063017309e-10
2.774250371e-08
1.112669437e-07
1.054089683e-09
1.138256711e-07
3.046081434e-09
1.15907861e-07
4.437786611e-09
1.172905644e-07
5.440443561e-09
1.179198121e-07
6.208041478e-09
1.177796536e-07
6.723943292e-09
1.169634007e-07
6.97163716e-09
1.155986334e-07
6.99454851e-09
1.138123454e-07
6.84283133e-09
1.117240908e-07
6.559522502e-09
1.09440761e-07
6.182503966e-09
1.070532385e-07
5.74666619e-09
1.046349846e-07
5.282115827e-09
1.022434148e-07
4.811439543e-09
9.992124928e-08
4.351302187e-09
9.769856099e-08
3.913269946e-09
9.559498105e-08
3.504715963e-09
9.362184514e-08
3.129655475e-09
9.178415587e-08
2.78953005e-09
9.008225999e-08
2.483931558e-09
8.85132061e-08
2.211221188e-09
8.707180242e-08
1.969022712e-09
8.57514317e-08
1.754577148e-09
8.454475286e-08
1.564905758e-09
8.344404852e-08
1.397209067e-09
8.244153777e-08
1.248861491e-09
8.152959223e-08
1.117460522e-09
8.070087171e-08
1.000866612e-09
7.99484045e-08
8.972148007e-10
7.9265624e-08
8.049115038e-10
7.864637264e-08
7.226205079e-10
7.808488409e-08
6.492408925e-10
7.757575255e-08
5.838800377e-10
7.711389504e-08
5.258246727e-10
7.669451043e-08
4.745124279e-10
7.6313036e-08
4.295057896e-10
7.596511443e-08
3.904704006e-10
7.564656545e-08
3.571541399e-10
7.535336555e-08
3.293678939e-10
7.508163115e-08
3.069674461e-10
7.482759316e-08
2.898372779e-10
7.458757729e-08
2.7787937e-10
7.435799199e-08
2.710044966e-10
7.413532148e-08
2.691270659e-10
7.391612293e-08
2.721593183e-10
7.369702725e-08
2.800049426e-10
7.347474132e-08
2.925549438e-10
7.32460513e-08
3.096852836e-10
7.30078294e-08
3.312519902e-10
3.570875697e-10
7.275704332e-08
1.096724535e-07
7.1163593e-10
1.107743974e-07
1.944137584e-09
1.122367094e-07
2.975474876e-09
1.138851356e-07
3.792017856e-09
1.156350431e-07
4.458134474e-09
1.173627328e-07
4.996253962e-09
1.189427428e-07
5.391627176e-09
1.202933488e-07
5.643942318e-09
1.213680884e-07
5.768091445e-09
1.22147013e-07
5.780597746e-09
1.22631975e-07
5.697542121e-09
1.228420562e-07
5.536585693e-09
1.228078063e-07
5.316366559e-09
1.22564847e-07
5.054399648e-09
1.221500597e-07
4.766090113e-09
1.215989895e-07
4.464340268e-09
1.209442684e-07
4.159436918e-09
1.202147573e-07
3.859166431e-09
1.19435231e-07
3.569056315e-09
1.18626432e-07
3.292730605e-09
1.178053498e-07
3.032303655e-09
1.169856224e-07
2.788750463e-09
1.161779776e-07
2.562222198e-09
1.153905781e-07
2.352305343e-09
1.146295259e-07
2.158261156e-09
1.138992268e-07
1.979160422e-09
1.132027025e-07
1.813984557e-09
1.125418604e-07
1.661708184e-09
1.119177164e-07
1.521358211e-09
1.113305752e-07
1.392051982e-09
1.107801756e-07
1.273019277e-09
1.102658039e-07
1.163611797e-09
1.097863808e-07
1.063302867e-09
1.093405262e-07
9.716796008e-10
1.089266089e-07
8.884306029e-10
1.085427845e-07
8.133314144e-10
1.081870265e-07
7.462297452e-10
1.078571506e-07
6.870312359e-10
1.075508332e-07
6.356863168e-10
1.072656245e-07
5.921768197e-10
1.06998956e-07
5.565060617e-10
1.067481492e-07
5.286863052e-10
1.065104286e-07
5.087250893e-10
1.062829312e-07
4.966244431e-10
1.060627178e-07
4.923725654e-10
1.058467889e-07
4.959336718e-10
1.056321005e-07
5.072432564e-10
1.05415574e-07
5.262118195e-10
1.051941116e-07
5.527145245e-10
5.865875082e-10
1.049646115e-07
1.095684747e-07
4.731610717e-10
1.100864423e-07
1.426169374e-09
1.107952388e-07
2.266677833e-09
1.116290654e-07
2.958190842e-09
1.125745516e-07
3.512648146e-09
1.136202333e-07
3.950572427e-09
1.147324459e-07
4.279414808e-09
1.15871371e-07
4.505017422e-09
1.170003238e-07
4.639138448e-09
1.180858992e-07
4.695021987e-09
1.190991788e-07
4.684262031e-09
1.200182326e-07
4.617531281e-09
1.208292065e-07
4.505392288e-09
1.215255806e-07
4.358025472e-09
1.22107033e-07
4.184637964e-09
1.225781105e-07
3.9932631e-09
1.229468183e-07
3.790729506e-09
1.232233205e-07
3.582664431e-09
1.23418848e-07
3.373528822e-09
1.235448667e-07
3.166711814e-09
1.236124966e-07
2.964673596e-09
1.236321399e-07
2.769107012e-09
1.236132659e-07
2.581096201e-09
1.235643113e-07
2.401260004e-09
1.234926927e-07
2.229879831e-09
1.234048464e-07
2.067006997e-09
1.233062873e-07
1.912543852e-09
1.232016872e-07
1.76630849e-09
1.230949593e-07
1.628086388e-09
1.229893422e-07
1.497669387e-09
1.228874787e-07
1.374882912e-09
1.227914868e-07
1.259603514e-09
1.227030206e-07
1.151768657e-09
1.226233216e-07
1.051378042e-09
1.225532605e-07
9.584909372e-10
1.224933715e-07
8.732197432e-10
1.224438797e-07
7.957210696e-10
1.224047249e-07
7.26185836e-10
1.223755802e-07
6.648309922e-10
1.223558702e-07
6.118868664e-10
1.223447806e-07
5.675956697e-10
1.223412742e-07
5.321926743e-10
1.223441037e-07
5.058953991e-10
1.22351819e-07
4.889090689e-10
1.223627814e-07
4.814101503e-10
1.223751769e-07
4.835380455e-10
1.223870273e-07
4.95392823e-10
1.22396209e-07
5.170301193e-10
1.224004687e-07
5.484548918e-10
5.896147153e-10
1.223974416e-07
1.094358522e-07
3.673090726e-10
1.09757352e-07
1.104669858e-09
1.102448188e-07
1.779211022e-09
1.108440478e-07
2.358961772e-09
1.115172391e-07
2.83945659e-09
1.122404685e-07
3.227342881e-09
1.129927778e-07
3.527105501e-09
1.137557816e-07
3.742013627e-09
1.145160591e-07
3.878861277e-09
1.152636561e-07
3.947425348e-09
1.159900686e-07
3.957849866e-09
1.166879151e-07
3.919684881e-09
1.173513171e-07
3.841990434e-09
1.179760995e-07
3.733243099e-09
1.185597245e-07
3.601012979e-09
1.191011803e-07
3.451807376e-09
1.196008215e-07
3.291088639e-09
1.200601441e-07
3.123342121e-09
1.204815214e-07
2.952151813e-09
1.208679402e-07
2.780293302e-09
1.212227667e-07
2.60984717e-09
1.215495534e-07
2.442320405e-09
1.218518865e-07
2.278762918e-09
1.221332741e-07
2.119872302e-09
1.223970669e-07
1.966086712e-09
1.226464086e-07
1.817664879e-09
1.228842025e-07
1.674749466e-09
1.231130945e-07
1.537415998e-09
1.233354692e-07
1.40571125e-09
1.235534536e-07
1.279684795e-09
1.237689254e-07
1.159411294e-09
1.239835237e-07
1.04500559e-09
1.241986614e-07
9.366313745e-10
1.244155353e-07
8.345046595e-10
1.24635134e-07
7.388925011e-10
1.248582454e-07
6.501084914e-10
1.250854609e-07
5.68505618e-10
1.253171798e-07
4.944669801e-10
1.255536135e-07
4.283971934e-10
1.257947898e-07
3.70710486e-10
1.260404991e-07
3.218861635e-10
1.26290402e-07
2.822895409e-10
1.265439529e-07
2.523444048e-10
1.268004157e-07
2.324461477e-10
1.270588763e-07
2.229495785e-10
1.273182445e-07
2.241699374e-10
1.2757726e-07
2.363773828e-10
1.278345012e-07
2.597888162e-10
1.280883959e-07
2.945601216e-10
3.40774833e-10
1.283372357e-07
1.094072327e-07
2.900760683e-10
1.096409086e-07
8.709940353e-10
1.100039379e-07
1.416182013e-09
1.104614459e-07
1.901453916e-09
1.109843167e-07
2.316585968e-09
1.115510214e-07
2.660638133e-09
1.121433185e-07
2.934808061e-09
1.127446528e-07
3.140678953e-09
1.13341636e-07
3.281877882e-09
1.139246525e-07
3.364408714e-09
1.144871266e-07
3.39537581e-09
1.150248117e-07
3.382000192e-09
1.155354335e-07
3.331369108e-09
1.160183567e-07
3.250320248e-09
1.164741623e-07
3.145207538e-09
1.169042746e-07
3.021695148e-09
1.173106883e-07
2.884674896e-09
1.176957631e-07
2.738267301e-09
1.180620571e-07
2.585857871e-09
1.184121943e-07
2.4301562e-09
1.18748766e-07
2.273275653e-09
1.190742615e-07
2.116824999e-09
1.193910232e-07
1.962001273e-09
1.197012188e-07
1.809676765e-09
1.20006828e-07
1.660477414e-09
1.203096416e-07
1.514851101e-09
1.206112664e-07
1.373124555e-09
1.209131327e-07
1.235549471e-09
1.212165038e-07
1.102339926e-09
1.215224864e-07
9.737019684e-10
1.218320405e-07
8.498567826e-10
1.221459891e-07
7.310567384e-10
1.224650271e-07
6.175931837e-10
1.227897273e-07
5.098044152e-10
1.231205424e-07
4.080773722e-10
1.234578076e-07
3.128432876e-10
1.23801743e-07
2.245703319e-10
1.241524464e-07
1.437634773e-10
1.245098926e-07
7.095088568e-11
1.248740472e-07
6.555640315e-12
1.252444097e-07
-4.847658837e-11
1.256206904e-07
-9.399118991e-11
1.260023621e-07
-1.293273555e-10
1.263887848e-07
-1.539765497e-10
1.267791893e-07
-1.674549432e-10
1.271726734e-07
-1.693141671e-10
1.275682059e-07
-1.591550605e-10
1.279646293e-07
-1.36634555e-10
1.283606568e-07
-1.014672593e-10
-5.341422116e-11
1.287548458e-07
1.093870833e-07
2.329926506e-10
1.095572939e-07
7.007833837e-10
1.098275985e-07
1.145877305e-09
1.101783444e-07
1.55070815e-09
1.105900239e-07
1.904906626e-09
1.110459459e-07
2.20471623e-09
1.115312718e-07
2.449482156e-09
1.12032222e-07
2.639728768e-09
1.125367429e-07
2.777356843e-09
1.130352444e-07
2.865907074e-09
1.135205866e-07
2.910033682e-09
1.139877475e-07
2.914839452e-09
1.144335763e-07
2.885540405e-09
1.148565822e-07
2.827314607e-09
1.152566539e-07
2.745136075e-09
1.15634745e-07
2.643604075e-09
1.159925844e-07
2.526835513e-09
1.163324269e-07
2.398424646e-09
1.16656843e-07
2.261441712e-09
1.169685448e-07
2.118454423e-09
1.172702521e-07
1.971568218e-09
1.175645964e-07
1.822480603e-09
1.178540553e-07
1.672542353e-09
1.181409125e-07
1.522819401e-09
1.184272379e-07
1.374151739e-09
1.187148816e-07
1.227207234e-09
1.190054768e-07
1.082529239e-09
1.193004491e-07
9.405772321e-10
1.19601027e-07
8.017620905e-10
1.19908256e-07
6.664731058e-10
1.202230128e-07
5.351001361e-10
1.205460155e-07
4.080540903e-10
1.208778355e-07
2.857731057e-10
1.212189106e-07
1.687292939e-10
1.21569557e-07
5.743084449e-11
1.219299672e-07
-4.756705444e-11
1.223002056e-07
-1.45668279e-10
1.226802119e-07
-2.362430461e-10
1.23069806e-07
-3.186434585e-10
1.234685745e-07
-3.9221308e-10
1.238763195e-07
-4.562216463e-10
1.242923834e-07
-5.100550886e-10
1.247160927e-07
-5.530366735e-10
1.251466349e-07
-5.845186472e-10
1.255830763e-07
-6.038963636e-10
1.260243716e-07
-6.106095145e-10
1.264693673e-07
-6.041508508e-10
1.269168101e-07
-5.840774706e-10
1.273653648e-07
-5.500218989e-10
-5.017064551e-10
1.278136573e-07
1.093728436e-07
1.90149279e-10
1.09501784e-07
5.718431692e-10
1.097098582e-07
9.378032877e-10
1.099852535e-07
1.275312862e-09
1.103144437e-07
1.575716233e-09
1.106845331e-07
1.834626699e-09
1.110837813e-07
2.050233876e-09
1.115014396e-07
2.222070354e-09
1.119279521e-07
2.350844374e-09
1.123553379e-07
2.43852145e-09
1.127773009e-07
2.488070838e-09
1.131891044e-07
2.503035965e-09
1.135874248e-07
2.487219924e-09
1.139702296e-07
2.444509703e-09
1.14336627e-07
2.378738538e-09
1.146866766e-07
2.29355427e-09
1.150211919e-07
2.192320104e-09
1.153415559e-07
2.078060541e-09
1.156495563e-07
1.95344125e-09
1.159472404e-07
1.820770296e-09
1.162367932e-07
1.682015352e-09
1.165204401e-07
1.538833686e-09
1.16800372e-07
1.392610413e-09
1.17078691e-07
1.244500355e-09
1.173573725e-07
1.095470217e-09
1.176382411e-07
9.463386305e-10
1.179229565e-07
7.97813776e-10
1.182130075e-07
6.505260493e-10
1.185097127e-07
5.050567261e-10
1.188142198e-07
3.61965958e-10
1.191275008e-07
2.218192511e-10
1.194503912e-07
8.516378562e-11
1.197835684e-07
-4.740396044e-11
1.201275512e-07
-1.752534219e-10
1.204827004e-07
-2.977184012e-10
1.208492297e-07
-4.140965774e-10
1.212272186e-07
-5.236574562e-10
1.216166141e-07
-6.256388414e-10
1.220172204e-07
-7.192499557e-10
1.224286918e-07
-8.036844981e-10
1.228505917e-07
-8.781215071e-10
1.23282283e-07
-9.417462742e-10
1.237230091e-07
-9.937628128e-10
1.241718829e-07
-1.03339267e-09
1.246278818e-07
-1.05989538e-09
1.25089854e-07
-1.072581747e-09
1.255565277e-07
-1.070824499e-09
1.260265197e-07
-1.054069709e-09
1.264983453e-07
-1.021847823e-09
-9.737855338e-10
1.269704244e-07
1.093635375e-07
1.566118562e-10
1.094645415e-07
4.708396866e-10
1.096287175e-07
7.736276987e-10
1.098484196e-07
1.055610887e-09
1.101143003e-07
1.309835617e-09
1.10416876e-07
1.532050911e-09
1.107471977e-07
1.719911935e-09
1.110969535e-07
1.872314366e-09
1.114585968e-07
1.989201099e-09
1.118255882e-07
2.071530023e-09
1.121925539e-07
2.121105232e-09
1.125552873e-07
2.140302543e-09
1.129106795e-07
2.131827641e-09
1.13256636e-07
2.098552953e-09
1.135919777e-07
2.043396441e-09
1.13916317e-07
1.969214722e-09
1.142299207e-07
1.878716201e-09
1.145335772e-07
1.774403913e-09
1.148284728e-07
1.658545494e-09
1.151160805e-07
1.533162504e-09
1.153980619e-07
1.400033971e-09
1.156761844e-07
1.260711217e-09
1.15952254e-07
1.116540777e-09
1.162280623e-07
9.686920188e-10
1.165053456e-07
8.181871029e-10
1.167857542e-07
6.659300977e-10
1.170708341e-07
5.127339302e-10
1.173620085e-07
3.593516695e-10
1.176605629e-07
2.065021944e-10
1.179676895e-07
5.483928497e-11
1.182843686e-07
-9.485974129e-11
1.186114868e-07
-2.419542281e-10
1.189497558e-07
-3.856727649e-10
1.192997525e-07
-5.25250034e-10
1.196619162e-07
-6.59882056e-10
1.200365396e-07
-7.887201184e-10
1.204237608e-07
-9.108787884e-10
1.208235628e-07
-1.025441051e-09
1.21235775e-07
-1.131462163e-09
1.216600684e-07
-1.227977863e-09
1.220959588e-07
-1.314011945e-09
1.225428015e-07
-1.388589028e-09
1.229997902e-07
-1.450751596e-09
1.234659639e-07
-1.499566529e-09
1.23940209e-07
-1.534140986e-09
1.24421266e-07
-1.553639113e-09
1.249077376e-07
-1.557296075e-09
1.253980993e-07
-1.54443124e-09
1.258907123e-07
-1.514461044e-09
-1.46691145e-09
1.263838376e-07
1.093568253e-07
1.297867118e-10
1.094375363e-07
3.90128986e-10
1.095693086e-07
6.418555185e-10
1.097470605e-07
8.778592096e-10
1.099643363e-07
1.092559949e-09
1.102142388e-07
1.282148375e-09
1.104899674e-07
1.44418322e-09
1.107850407e-07
1.577241152e-09
1.110934584e-07
1.680783398e-09
1.114098943e-07
1.755094007e-09
1.117298428e-07
1.801156612e-09
1.120496685e-07
1.820476745e-09
1.123665865e-07
1.814909484e-09
1.126786145e-07
1.786524713e-09
1.129845086e-07
1.737502043e-09
1.132836817e-07
1.670041491e-09
1.135761083e-07
1.586289455e-09
1.138622274e-07
1.488284782e-09
1.141428478e-07
1.377925033e-09
1.144190613e-07
1.256949011e-09
1.146921636e-07
1.126931764e-09
1.149635854e-07
9.892894598e-10
1.152348347e-07
8.4529145e-10
1.155074489e-07
6.960778583e-10
1.157829562e-07
5.426798444e-10
1.160628406e-07
3.86045617e-10
1.163485205e-07
2.270538684e-10
1.166413616e-07
6.651053325e-11
1.169425892e-07
-9.47254221e-11
1.172533238e-07
-2.558951918e-10
1.175746166e-07
-4.161523271e-10
1.179073425e-07
-5.746798003e-10
1.182522778e-07
-7.306078157e-10
1.186100517e-07
-8.830237957e-10
1.189811459e-07
-1.030976188e-09
1.193658959e-07
-1.173470046e-09
1.197644833e-07
-1.309466276e-09
1.201769288e-07
-1.43788645e-09
1.206030857e-07
-1.55761904e-09
1.210426351e-07
-1.667527442e-09
1.214950832e-07
-1.766460263e-09
1.219597584e-07
-1.853264491e-09
1.224358075e-07
-1.926800936e-09
1.229221996e-07
-1.985958636e-09
1.234177295e-07
-2.029671182e-09
1.239210243e-07
-2.056934559e-09
1.244305523e-07
-2.066824616e-09
1.249446347e-07
-2.058513719e-09
1.254614601e-07
-2.031286139e-09
-1.984551753e-09
1.259791001e-07
1.09351795e-07
1.079919595e-10
1.094173585e-07
3.245657228e-10
1.095247622e-07
5.344519723e-10
1.096705134e-07
7.321080243e-10
1.098500517e-07
9.130214944e-10
1.100583177e-07
1.073882348e-09
1.102901519e-07
1.212349133e-09
1.105405275e-07
1.326865743e-09
1.108047161e-07
1.416594781e-09
1.110784425e-07
1.481367745e-09
1.113580023e-07
1.521596752e-09
1.116403256e-07
1.53815335e-09
1.119229884e-07
1.532246593e-09
1.122041948e-07
1.50531813e-09
1.124827417e-07
1.458955109e-09
1.127579669e-07
1.394816282e-09
1.130296861e-07
1.314570282e-09
1.13298123e-07
1.219847883e-09
1.135638392e-07
1.112208829e-09
1.138276667e-07
9.931216134e-10
1.140906447e-07
8.639537579e-10
1.143539633e-07
7.259709303e-10
1.146189138e-07
5.803410359e-10
1.14886847e-07
4.281446487e-10
1.151591416e-07
2.703851894e-10
1.154371594e-07
1.08027643e-10
1.157222351e-07
-5.802213166e-11
1.160156376e-07
-2.268919759e-10
1.163186008e-07
-3.976885615e-10
1.166322389e-07
-5.695330601e-10
1.169576029e-07
-7.415160459e-10
1.172956132e-07
-9.126898422e-10
1.176470743e-07
-1.082068675e-09
1.180126669e-07
-1.248616153e-09
1.183929328e-07
-1.411241856e-09
1.187882639e-07
-1.568800979e-09
1.191988928e-07
-1.720095181e-09
1.19624883e-07
-1.863876665e-09
1.200661189e-07
-1.998855094e-09
1.205222981e-07
-2.123706835e-09
1.209929244e-07
-2.237086784e-09
1.214773023e-07
-2.337642836e-09
1.219745337e-07
-2.424032794e-09
1.224835176e-07
-2.494942757e-09
1.23002953e-07
-2.549106661e-09
1.235313452e-07
-2.585326893e-09
1.240670152e-07
-2.602495197e-09
1.246081139e-07
-2.599613148e-09
1.25152639e-07
-2.575811363e-09
-2.530366405e-09
1.256984539e-07
1.093479434e-07
9.004873093e-11
1.094019084e-07
2.706009531e-10
1.094905315e-07
4.458288474e-10
1.096113364e-07
6.11303026e-10
1.09761039e-07
7.63318956e-10
1.09935908e-07
8.990134468e-10
1.101320445e-07
1.016212662e-09
1.103455737e-07
1.113336653e-09
1.105727909e-07
1.189377749e-09
1.108102876e-07
1.243871353e-09
1.110550519e-07
1.276832649e-09
1.11304533e-07
1.288672317e-09
1.115566696e-07
1.280110113e-09
1.118098914e-07
1.252096473e-09
1.12063103e-07
1.205743628e-09
1.123156535e-07
1.142265791e-09
1.125672954e-07
1.062928421e-09
1.12818136e-07
9.690074364e-10
1.130685859e-07
8.617589681e-10
1.133193084e-07
7.423991273e-10
1.1357117e-07
6.120921881e-10
1.138251948e-07
4.719460893e-10
1.140825204e-07
3.230153009e-10
1.143443553e-07
1.663096684e-10
1.146120383e-07
2.701970851e-12
1.148867271e-07
-1.666613834e-10
1.15169777e-07
-3.410720699e-10
1.154624245e-07
-5.195394381e-10
1.157658831e-07
-7.011470684e-10
1.16081294e-07
-8.84943772e-10
1.164097208e-07
-1.069942697e-09
1.167521387e-07
-1.255107542e-09
1.171094164e-07
-1.439346204e-09
1.174823024e-07
-1.621501841e-09
1.178714096e-07
-1.800348826e-09
1.182772015e-07
-1.974592714e-09
1.186999778e-07
-2.142871563e-09
1.191398609e-07
-2.303759924e-09
1.195967817e-07
-2.455776254e-09
1.200704679e-07
-2.597393368e-09
1.205604328e-07
-2.727051835e-09
1.210659662e-07
-2.843176438e-09
1.215861285e-07
-2.944195581e-09
1.221197484e-07
-3.02856323e-09
1.226654243e-07
-3.094782762e-09
1.232215296e-07
-3.141432017e-09
1.237862232e-07
-3.167188689e-09
1.24357465e-07
-3.170855332e-09
1.249330363e-07
-3.151383135e-09
-3.107893232e-09
1.255105628e-07
1.093449227e-07
7.512613043e-11
1.093897906e-07
2.257328704e-10
1.094636164e-07
3.720028857e-10
1.095646075e-07
5.103119918e-10
1.096903646e-07
6.375619754e-10
1.098381178e-07
7.512603228e-10
1.100049179e-07
8.494127396e-10
1.101877822e-07
9.304725435e-10
1.103838167e-07
9.933435883e-10
1.105903203e-07
1.037368059e-09
1.108048707e-07
1.06228264e-09
1.110253832e-07
1.068160109e-09
1.112501449e-07
1.055348703e-09
1.114778268e-07
1.024414835e-09
1.117074803e-07
9.760902414e-10
1.119385217e-07
9.112245082e-10
1.121707062e-07
8.307439752e-10
1.124040959e-07
7.356178805e-10
1.126390226e-07
6.268322693e-10
1.128760507e-07
5.053709558e-10
1.131159385e-07
3.722043253e-10
1.133596025e-07
2.28281951e-10
1.136081041e-07
7.45134937e-11
1.138625543e-07
-8.814074289e-11
1.141240973e-07
-2.588412415e-10
1.143940795e-07
-4.366436383e-10
1.146736919e-07
-6.20684414e-10
1.149641914e-07
-8.100388114e-10
1.152668005e-07
-1.00375611e-09
1.155827008e-07
-1.200844049e-09
1.159130148e-07
-1.400256712e-09
1.162587889e-07
-1.600881546e-09
1.166209735e-07
-1.801530658e-09
1.170004063e-07
-2.00093448e-09
1.173977948e-07
-2.197737238e-09
1.178136975e-07
-2.390495488e-09
1.182485053e-07
-2.577679451e-09
1.187024224e-07
-2.757677199e-09
1.191754481e-07
-2.928802313e-09
1.196673596e-07
-3.089305261e-09
1.20177696e-07
-3.237388584e-09
1.207057453e-07
-3.371225899e-09
1.212505342e-07
-3.48898457e-09
1.218108224e-07
-3.588851721e-09
1.223851024e-07
-3.669063087e-09
1.229716041e-07
-3.727933803e-09
1.235683055e-07
-3.763889968e-09
1.241729502e-07
-3.775499919e-09
1.247830711e-07
-3.761504021e-09
-3.720841377e-09
1.25396019e-07
1.093425031e-07
6.262292056e-11
1.093800875e-07
1.881482733e-10
1.094420254e-07
3.100649326e-10
1.095269982e-07
4.25339174e-10
1.096332315e-07
5.313288095e-10
1.097586536e-07
6.258383693e-10
1.099010283e-07
7.070382634e-10
1.100580636e-07
7.734376223e-10
1.102275083e-07
8.238991984e-10
1.104072384e-07
8.576383208e-10
1.105953271e-07
8.741943862e-10
1.107900973e-07
8.733902745e-10
1.109901557e-07
8.552905926e-10
1.111944104e-07
8.201603346e-10
1.114020756e-07
7.684251287e-10
1.116126659e-07
7.006343137e-10
1.118259816e-07
6.174282744e-10
1.120420885e-07
5.195110481e-10
1.122612922e-07
4.076284773e-10
1.124841098e-07
2.825532218e-10
1.12711244e-07
1.450699166e-10
1.12943567e-07
-4.041244706e-12
1.131820228e-07
-1.639425112e-10
1.134277402e-07
-3.338583726e-10
1.136818631e-07
-5.129641836e-10
1.13945638e-07
-7.004184129e-10
1.142203119e-07
-8.953582452e-10
1.145071548e-07
-1.096881695e-09
1.148074353e-07
-1.304036703e-09
1.151224003e-07
-1.515809113e-09
1.154532535e-07
-1.731109899e-09
1.158011363e-07
-1.948764327e-09
1.161671082e-07
-2.167502607e-09
1.16552126e-07
-2.385952297e-09
1.169570215e-07
-2.602632815e-09
1.173824787e-07
-2.815952884e-09
1.178290102e-07
-3.024211069e-09
1.182969325e-07
-3.225599605e-09
1.187863421e-07
-3.418212092e-09
1.192970921e-07
-3.600055592e-09
1.198287706e-07
-3.769067506e-09
1.203806817e-07
-3.923137368e-09
1.209518306e-07
-4.060133418e-09
1.215409125e-07
-4.177933614e-09
1.2214631e-07
-4.27446064e-09
1.227660961e-07
-4.347719927e-09
1.233980451e-07
-4.395839156e-09
1.240396527e-07
-4.417107776e-09
1.246881637e-07
-4.410015093e-09
-4.373284731e-09
1.253406074e-07
1.093405276e-07
5.209522613e-11
1.093721669e-07
1.56508928e-10
1.094243738e-07
2.578580601e-10
1.094961664e-07
3.535466722e-10
1.095862193e-07
4.41275994e-10
1.096929746e-07
5.19083293e-10
1.098147343e-07
5.852788127e-10
1.099497407e-07
6.384314658e-10
1.100962517e-07
6.773885465e-10
1.102526093e-07
7.012810274e-10
1.104172981e-07
7.095059155e-10
1.105889898e-07
7.016987314e-10
1.107665758e-07
6.7770468e-10
1.109491866e-07
6.37549597e-10
1.111362013e-07
5.814105003e-10
1.11327248e-07
5.095875941e-10
1.115221978e-07
4.224785226e-10
1.11721152e-07
3.205568612e-10
1.119244275e-07
2.043528187e-10
1.121325394e-07
7.444108929e-11
1.123461588e-07
-6.854968755e-11
1.125661171e-07
-2.239997708e-10
1.127934008e-07
-3.912263535e-10
1.130290828e-07
-5.695404209e-10
1.132743293e-07
-7.582105846e-10
1.13530381e-07
-9.564699871e-10
1.137985297e-07
-1.163506966e-09
1.140801016e-07
-1.378453598e-09
1.143764379e-07
-1.600373078e-09
1.146888756e-07
-1.828246933e-09
1.150187279e-07
-2.060962228e-09
1.153672631e-07
-2.297299569e-09
1.157356823e-07
-2.535922014e-09
1.161250956e-07
-2.775365677e-09
1.165364952e-07
-3.014032601e-09
1.169707287e-07
-3.250186407e-09
1.174284687e-07
-3.48195119e-09
1.179101832e-07
-3.707314204e-09
1.18416104e-07
-3.924132999e-09
1.189461959e-07
-4.130147793e-09
1.195001278e-07
-4.322999752e-09
1.200772459e-07
-4.500255654e-09
1.206765513e-07
-4.659438874e-09
1.21296684e-07
-4.798066357e-09
1.219359143e-07
-4.913691211e-09
1.225921442e-07
-5.003950033e-09
1.232629181e-07
-5.06661302e-09
1.239454447e-07
-5.099634381e-09
1.246366304e-07
-5.101201125e-09
-5.069777959e-09
1.253331235e-07
1.093388845e-07
4.32106648e-11
1.093655808e-07
1.298128187e-10
1.09409677e-07
2.137618913e-10
1.094704353e-07
2.92788559e-10
1.09546859e-07
3.648525729e-10
1.096377716e-07
4.281708678e-10
1.097418834e-07
4.811671454e-10
1.098578502e-07
5.224648105e-10
1.099843312e-07
5.509077489e-10
1.101200436e-07
5.655687481e-10
1.102638104e-07
5.657391383e-10
1.104145985e-07
5.509105696e-10
1.105715475e-07
5.207555215e-10
1.107339901e-07
4.751070085e-10
1.109014632e-07
4.13937409e-10
1.110737133e-07
3.373375264e-10
1.112506943e-07
2.454975257e-10
1.114325608e-07
1.386903232e-10
1.116196846e-07
1.722892523e-11
1.118125472e-07
-1.184217293e-10
1.120118765e-07
-2.678792572e-10
1.122185071e-07
-4.306305488e-10
1.124334224e-07
-6.061416396e-10
1.126577144e-07
-7.938323175e-10
1.128925792e-07
-9.930753269e-10
1.131393004e-07
-1.203191165e-09
1.133992312e-07
-1.423437803e-09
1.136737771e-07
-1.652999488e-09
1.139643786e-07
-1.890974561e-09
1.142724933e-07
-2.136361635e-09
1.14599576e-07
-2.388044964e-09
1.149470564e-07
-2.644780111e-09
1.153163147e-07
-2.905180502e-09
1.157086544e-07
-3.167705491e-09
1.161252723e-07
-3.430650452e-09
1.165672255e-07
-3.692139513e-09
1.170353959e-07
-3.950121657e-09
1.175304526e-07
-4.202371098e-09
1.180528123e-07
-4.446492904e-09
1.186025993e-07
-4.679934847e-09
1.191796058e-07
-4.900006464e-09
1.197832561e-07
-5.103906285e-09
1.204125747e-07
-5.288757693e-09
1.210661614e-07
-5.451653092e-09
1.217421756e-07
-5.589705775e-09
1.224383336e-07
-5.700108738e-09
1.231519188e-07
-5.780198589e-09
1.238798059e-07
-5.827521165e-09
1.246185003e-07
-5.839895209e-09
-5.815471027e-09
1.253641933e-07
1.093374934e-07
3.571726449e-11
1.093600057e-07
1.073008278e-10
1.093972223e-07
1.765454902e-10
1.094485846e-07
2.414264722e-10
1.095133394e-07
3.000979662e-10
1.095905965e-07
3.509138613e-10
1.096793771e-07
3.923866838e-10
1.097786572e-07
4.231848901e-10
1.098874119e-07
4.421530091e-10
1.100046593e-07
4.483211473e-10
1.10129499e-07
4.408992232e-10
1.102611441e-07
4.19265153e-10
1.103989475e-07
3.829520599e-10
1.105424199e-07
3.316345379e-10
1.106912435e-07
2.651138957e-10
1.108452788e-07
1.833022499e-10
1.110045742e-07
8.620204186e-11
1.111693454e-07
-2.608086683e-11
1.113399699e-07
-1.533957503e-10
1.115170477e-07
-2.954996556e-10
1.117012843e-07
-4.521159682e-10
1.118935514e-07
-6.228977116e-10
1.120948558e-07
-8.074459455e-10
1.123063306e-07
-1.005307107e-09
1.125292236e-07
-1.215968402e-09
1.127648834e-07
-1.438850976e-09
1.13014746e-07
-1.673300358e-09
1.132803212e-07
-1.918574615e-09
1.135631773e-07
-2.17383046e-09
1.138649231e-07
-2.438107408e-09
1.141871889e-07
-2.710310784e-09
1.145316033e-07
-2.989194544e-09
1.148997673e-07
-3.273344552e-09
1.152932248e-07
-3.561162879e-09
1.157134282e-07
-3.85085376e-09
1.161617007e-07
-4.14041196e-09
1.166391935e-07
-4.427614539e-09
1.171468395e-07
-4.71001729e-09
1.176853037e-07
-4.984957283e-09
1.182549318e-07
-5.249562867e-09
1.188556978e-07
-5.500772425e-09
1.194871544e-07
-5.735363425e-09
1.201483889e-07
-5.949993068e-09
1.208379862e-07
-6.141250852e-09
1.215540025e-07
-6.305722153e-09
1.222939552e-07
-6.440061553e-09
1.230548303e-07
-6.54107415e-09
1.238331101e-07
-6.605801268e-09
1.246248203e-07
-6.631605366e-09
-6.616248822e-09
1.254255984e-07
1.093362952e-07
2.94221683e-11
1.093552045e-07
8.839193137e-11
1.093864856e-07
1.45264703e-10
1.09429713e-07
1.98199239e-10
1.094843156e-07
2.454954591e-10
1.095496195e-07
2.856101138e-10
1.096248833e-07
3.171230431e-10
1.097093309e-07
3.387372866e-10
1.09802186e-07
3.492977641e-10
1.099027062e-07
3.478005931e-10
1.10010215e-07
3.333900393e-10
1.101241289e-07
3.053511077e-10
1.102439794e-07
2.631013429e-10
1.103694323e-07
2.061817022e-10
1.105002998e-07
1.342464737e-10
1.106365497e-07
4.705243209e-11
1.10778302e-07
-5.555031029e-11
1.109258519e-07
-1.736307602e-10
1.110796445e-07
-3.071884598e-10
1.112402951e-07
-4.561503164e-10
1.114085606e-07
-6.203814805e-10
1.115853498e-07
-7.99686954e-10
1.117717146e-07
-9.938106969e-10
1.119688413e-07
-1.202433938e-09
1.121780432e-07
-1.425170375e-09
1.124007513e-07
-1.661559127e-09
1.126385055e-07
-1.911054399e-09
1.128929429e-07
-2.173011882e-09
1.131657851e-07
-2.446672566e-09
1.134588222e-07
-2.731144435e-09
1.137738941e-07
-3.025382585e-09
1.141128682e-07
-3.328168437e-09
1.144776125e-07
-3.638088613e-09
1.148699638e-07
-3.953514096e-09
1.152916905e-07
-4.272580457e-09
1.157444486e-07
-4.593170106e-09
1.162297318e-07
-4.912897746e-09
1.167488151e-07
-5.229100586e-09
1.173026929e-07
-5.538835295e-09
1.178920137e-07
-5.838883864e-09
1.185170116e-07
-6.12577043e-09
1.19177439e-07
-6.395791017e-09
1.198725034e-07
-6.645058298e-09
1.206008145e-07
-6.869562839e-09
1.213603425e-07
-7.065250626e-09
1.221483962e-07
-7.22811529e-09
1.229616249e-07
-7.354302568e-09
1.237960465e-07
-7.4402228e-09
1.246471058e-07
-7.482664799e-09
-7.47890332e-09
1.255097599e-07
1.093352461e-07
2.417630292e-11
1.093510012e-07
7.263709188e-11
1.09377077e-07
1.191890158e-10
1.094131479e-07
1.621284954e-10
1.094587797e-07
1.998639028e-10
1.095134621e-07
2.309279964e-10
1.095766352e-07