/*--------------------------------*- C++ -*----------------------------------*\
| =========                 |                                                 |
| \\      /  F ield         | foam-extend: Open Source CFD                    |
|  \\    /   O peration     | Version:     4.1                                |
|   \\  /    A nd           | Web:         http://www.foam-extend.org         |
|    \\/     M anipulation  |                                                 |
\*---------------------------------------------------------------------------*/
FoamFile
{
    version     2.0;
    format      ascii;
    class       volVectorField;
    location    "250000";
    object      U;
}
// * * * * * * * * * * * * * * * * * * * * * * * * * * * * * * * * * * * * * //

dimensions      [0 1 -1 0 0 0 0];

internalField   nonuniform List<vector> 
15920
(
(0.0002133477354 5.255520995e-06 0)
(0.0002061402041 1.155732844e-05 0)
(0.0001960128356 1.396939994e-05 0)
(0.0001823950645 1.44176614e-05 0)
(0.0001679031333 1.393781403e-05 0)
(0.0001541871051 1.283936397e-05 0)
(0.0001414967187 1.130288646e-05 0)
(0.0001297547536 9.553066945e-06 0)
(0.0001190461037 7.790973976e-06 0)
(0.0001094981497 6.144780918e-06 0)
(0.0001011390437 4.682962452e-06 0)
(9.39087173e-05 3.437360902e-06 0)
(8.771491726e-05 2.41438845e-06 0)
(8.245837833e-05 1.60124966e-06 0)
(7.803544737e-05 9.736382195e-07 0)
(7.434039085e-05 5.028117853e-07 0)
(7.127094231e-05 1.60083745e-07 0)
(6.873271482e-05 -8.085153086e-08 0)
(6.664103695e-05 -2.428553956e-07 0)
(6.492135134e-05 -3.45036357e-07 0)
(6.350909746e-05 -4.029067591e-07 0)
(6.234926869e-05 -4.287784011e-07 0)
(6.139566488e-05 -4.322460574e-07 0)
(6.060997642e-05 -4.206922388e-07 0)
(5.996074963e-05 -3.996383276e-07 0)
(5.942236965e-05 -3.730983762e-07 0)
(5.897413267e-05 -3.439239046e-07 0)
(5.859941079e-05 -3.14089001e-07 0)
(5.82849024e-05 -2.849097034e-07 0)
(5.801997114e-05 -2.572100814e-07 0)
(5.779607744e-05 -2.314479486e-07 0)
(5.760630117e-05 -2.078107113e-07 0)
(5.744494852e-05 -1.862893433e-07 0)
(5.730723504e-05 -1.667365381e-07 0)
(5.71890364e-05 -1.48914331e-07 0)
(5.708669955e-05 -1.325365138e-07 0)
(5.699689274e-05 -1.173121208e-07 0)
(5.691648246e-05 -1.029750719e-07 0)
(5.684243645e-05 -8.929635801e-08 0)
(5.677175355e-05 -7.607519534e-08 0)
(5.670143376e-05 -6.311877979e-08 0)
(5.662847857e-05 -5.023943578e-08 0)
(5.654989778e-05 -3.726528015e-08 0)
(5.646271658e-05 -2.405232024e-08 0)
(5.636398375e-05 -1.049220544e-08 0)
(5.625078448e-05 3.484988193e-09 0)
(5.612025863e-05 1.791199517e-08 0)
(5.596962296e-05 3.278741781e-08 0)
(5.579619643e-05 4.807817744e-08 0)
(5.559742791e-05 6.372260978e-08 0)
(0.0002200317098 5.666523963e-06 0)
(0.0002248956658 1.295973699e-05 0)
(0.0002299778212 1.662609012e-05 0)
(0.0002336658958 1.859400359e-05 0)
(0.0002356176192 1.974643519e-05 0)
(0.000236011229 2.019211267e-05 0)
(0.000235014681 1.997456963e-05 0)
(0.000232794932 1.923821694e-05 0)
(0.000229586642 1.81413014e-05 0)
(0.0002256537867 1.680612466e-05 0)
(0.0002212352904 1.532824227e-05 0)
(0.0002165283442 1.378905989e-05 0)
(0.0002116935064 1.22560737e-05 0)
(0.0002068602869 1.078076282e-05 0)
(0.0002021288055 9.399001963e-06 0)
(0.0001975715363 8.133212456e-06 0)
(0.00019323725 6.994794393e-06 0)
(0.0001891558963 5.986496146e-06 0)
(0.0001853430073 5.104714691e-06 0)
(0.000181803303 4.341589273e-06 0)
(0.0001785336528 3.686734787e-06 0)
(0.0001755254821 3.128569828e-06 0)
(0.0001727666294 2.655277749e-06 0)
(0.0001702428713 2.255474283e-06 0)
(0.0001679389535 1.918543554e-06 0)
(0.0001658392577 1.63484503e-06 0)
(0.0001639282841 1.395850606e-06 0)
(0.0001621909974 1.194196789e-06 0)
(0.0001606130446 1.023659054e-06 0)
(0.0001591808677 8.790731078e-07 0)
(0.0001578817371 7.562259483e-07 0)
(0.0001567037335 6.517335123e-07 0)
(0.000155635695 5.629173379e-07 0)
(0.0001546671465 4.876885108e-07 0)
(0.0001537882198 4.24442783e-07 0)
(0.0001529895679 3.719666868e-07 0)
(0.0001522622867 3.29350701e-07 0)
(0.0001515978509 2.95914328e-07 0)
(0.0001509880641 2.711429803e-07 0)
(0.0001504250257 2.546412496e-07 0)
(0.0001499010921 2.46105496e-07 0)
(0.0001494088295 2.453002669e-07 0)
(0.0001489409785 2.520343861e-07 0)
(0.0001484904353 2.661411938e-07 0)
(0.0001480502425 2.874601461e-07 0)
(0.000147613588 3.158194545e-07 0)
(0.0001471738086 3.510230955e-07 0)
(0.0001467243953 3.928436493e-07 0)
(0.0001462590034 4.410141269e-07 0)
(0.000145771468 4.952203054e-07 0)
(0.0002187906237 1.421167052e-06 0)
(0.0002200900163 4.317479838e-06 0)
(0.0002226880558 6.994876871e-06 0)
(0.0002260086228 9.417527215e-06 0)
(0.000229533308 1.157747224e-05 0)
(0.0002330460005 1.33547167e-05 0)
(0.0002363847748 1.465702574e-05 0)
(0.0002393556027 1.548024081e-05 0)
(0.0002418062845 1.586722912e-05 0)
(0.0002436652053 1.587407687e-05 0)
(0.000244922682 1.556417707e-05 0)
(0.0002456058445 1.500706375e-05 0)
(0.0002457661608 1.427216028e-05 0)
(0.0002454711564 1.342225248e-05 0)
(0.0002447952544 1.250989827e-05 0)
(0.000243812279 1.157663677e-05 0)
(0.0002425910421 1.06536277e-05 0)
(0.0002411932419 9.762857535e-06 0)
(0.0002396725661 8.918631326e-06 0)
(0.0002380744925 8.129181428e-06 0)
(0.0002364366254 7.398204103e-06 0)
(0.0002347894004 6.726187858e-06 0)
(0.0002331569695 6.111479936e-06 0)
(0.0002315580516 5.551113059e-06 0)
(0.0002300067327 5.041359296e-06 0)
(0.0002285133231 4.578141698e-06 0)
(0.0002270850924 4.157349111e-06 0)
(0.0002257268491 3.775054087e-06 0)
(0.000224441416 3.427647709e-06 0)
(0.0002232300283 3.111914284e-06 0)
(0.0002220926601 2.825063682e-06 0)
(0.0002210282823 2.564732151e-06 0)
(0.0002200350601 2.328959198e-06 0)
(0.0002191105021 2.116147487e-06 0)
(0.0002182515725 1.925014143e-06 0)
(0.0002174547767 1.754541474e-06 0)
(0.0002167162286 1.603934383e-06 0)
(0.000216031705 1.472581586e-06 0)
(0.0002153966881 1.360019942e-06 0)
(0.0002148063979 1.265896582e-06 0)
(0.0002142558119 1.18993016e-06 0)
(0.0002137396793 1.13187605e-06 0)
(0.0002132525408 1.091501358e-06 0)
(0.0002127887523 1.068569282e-06 0)
(0.0002123425059 1.062823922e-06 0)
(0.0002119078562 1.073977214e-06 0)
(0.0002114787522 1.101698939e-06 0)
(0.0002110490648 1.145604741e-06 0)
(0.0002106126115 1.205247045e-06 0)
(0.0002101631851 1.280107315e-06 0)
(0.0002187707567 1.548711387e-06 0)
(0.0002194889235 4.48033746e-06 0)
(0.0002207367166 6.938137214e-06 0)
(0.0002223404434 8.826058712e-06 0)
(0.0002241556162 1.025485241e-05 0)
(0.0002261506518 1.133548596e-05 0)
(0.0002283149376 1.211611044e-05 0)
(0.0002305879301 1.262747353e-05 0)
(0.0002328809183 1.290503902e-05 0)
(0.00023511442 1.298276241e-05 0)
(0.0002372265219 1.288938221e-05 0)
(0.0002391685357 1.265163041e-05 0)
(0.0002409047955 1.229647518e-05 0)
(0.0002424146328 1.185010973e-05 0)
(0.0002436917189 1.133667761e-05 0)
(0.0002447411834 1.077772595e-05 0)
(0.0002455763814 1.01919748e-05 0)
(0.0002462161003 9.595111195e-06 0)
(0.0002466822271 8.999702571e-06 0)
(0.0002469978473 8.415335042e-06 0)
(0.0002471858212 7.848939565e-06 0)
(0.0002472678378 7.305207051e-06 0)
(0.0002472638576 6.787014726e-06 0)
(0.0002471918243 6.295819189e-06 0)
(0.0002470675847 5.832066039e-06 0)
(0.0002469049567 5.395517367e-06 0)
(0.0002467158521 4.985492187e-06 0)
(0.0002465104184 4.601054308e-06 0)
(0.000246297198 4.241162539e-06 0)
(0.0002460832987 3.904786153e-06 0)
(0.0002458745604 3.590987464e-06 0)
(0.0002456757076 3.298975156e-06 0)
(0.0002454904814 3.028132447e-06 0)
(0.0002453217514 2.778025049e-06 0)
(0.0002451716091 2.548393218e-06 0)
(0.0002450414421 2.339132965e-06 0)
(0.0002449319956 2.150271861e-06 0)
(0.0002448434231 1.981942103e-06 0)
(0.0002447753272 1.834354317e-06 0)
(0.0002447267976 1.707770322e-06 0)
(0.0002446964386 1.602488794e-06 0)
(0.0002446823924 1.518788608e-06 0)
(0.0002446823679 1.456934294e-06 0)
(0.0002446936627 1.417165324e-06 0)
(0.0002447131827 1.399667065e-06 0)
(0.0002447374685 1.404551084e-06 0)
(0.0002447627217 1.431842868e-06 0)
(0.0002447848328 1.48146765e-06 0)
(0.000244799416 1.553238172e-06 0)
(0.0002448018437 1.646844868e-06 0)
(0.000218708041 1.044719862e-06 0)
(0.0002190978437 3.042276247e-06 0)
(0.0002198926339 4.83165343e-06 0)
(0.0002210124925 6.357472025e-06 0)
(0.000222321095 7.626295645e-06 0)
(0.0002237339133 8.655202034e-06 0)
(0.0002252154104 9.447651504e-06 0)
(0.0002267381498 1.000945349e-05 0)
(0.000228270608 1.036064581e-05 0)
(0.0002297858221 1.052955415e-05 0)
(0.0002312648762 1.054458474e-05 0)
(0.0002326931669 1.043204383e-05 0)
(0.0002340578743 1.021661007e-05 0)
(0.0002353485975 9.921057397e-06 0)
(0.0002365584112 9.565590628e-06 0)
(0.0002376838968 9.167564493e-06 0)
(0.0002387246195 8.74153582e-06 0)
(0.0002396826059 8.299412542e-06 0)
(0.0002405618728 7.850637591e-06 0)
(0.0002413679267 7.402440494e-06 0)
(0.000242107256 6.960154071e-06 0)
(0.0002427868875 6.527555045e-06 0)
(0.0002434140388 6.107191623e-06 0)
(0.00024399586 5.700680044e-06 0)
(0.0002445392472 5.308969759e-06 0)
(0.0002450507178 4.932553386e-06 0)
(0.0002455363313 4.571625946e-06 0)
(0.0002460016425 4.226212571e-06 0)
(0.0002464516815 3.896272702e-06 0)
(0.0002468909549 3.581779944e-06 0)
(0.00024732346 3.282778995e-06 0)
(0.000247752706 2.999422711e-06 0)
(0.0002481817373 2.731991541e-06 0)
(0.0002486131567 2.480899919e-06 0)
(0.0002490491446 2.246691376e-06 0)
(0.0002494914736 2.030023288e-06 0)
(0.0002499415196 1.831645624e-06 0)
(0.0002504002715 1.652377724e-06 0)
(0.0002508683354 1.493089773e-06 0)
(0.0002513459509 1.354657136e-06 0)
(0.0002518329477 1.238053891e-06 0)
(0.0002523287644 1.144151152e-06 0)
(0.0002528325051 1.073782306e-06 0)
(0.0002533429013 1.027742767e-06 0)
(0.0002538583018 1.006751662e-06 0)
(0.0002543766954 1.011424753e-06 0)
(0.0002548957286 1.0422584e-06 0)
(0.0002554127164 1.09961826e-06 0)
(0.0002559246592 1.183725521e-06 0)
(0.0002564282696 1.294625308e-06 0)
(0.0002186956534 8.234661063e-07 0)
(0.0002189793119 2.439820002e-06 0)
(0.000219562465 3.949121549e-06 0)
(0.0002204029308 5.283693592e-06 0)
(0.0002214094844 6.41447976e-06 0)
(0.0002225143088 7.338990863e-06 0)
(0.0002236805434 8.061749467e-06 0)
(0.000224880646 8.590411306e-06 0)
(0.000226086224 8.939117696e-06 0)
(0.0002272722833 9.127613138e-06 0)
(0.0002284216465 9.177533028e-06 0)
(0.00022952408 9.110277889e-06 0)
(0.0002305737504 8.946550661e-06 0)
(0.0002315679424 8.705964097e-06 0)
(0.0002325066388 8.406355958e-06 0)
(0.0002333919845 8.063280839e-06 0)
(0.0002342275829 7.689869348e-06 0)
(0.0002350179237 7.296918877e-06 0)
(0.0002357680108 6.893078075e-06 0)
(0.0002364830935 6.485082882e-06 0)
(0.000237168446 6.078031354e-06 0)
(0.0002378291945 5.675672429e-06 0)
(0.0002384702013 5.280681884e-06 0)
(0.0002390959947 4.894909756e-06 0)
(0.0002397107327 4.519594639e-06 0)
(0.0002403181894 4.155544094e-06 0)
(0.0002409217612 3.803282232e-06 0)
(0.0002415244814 3.463168995e-06 0)
(0.0002421290391 3.135495517e-06 0)
(0.0002427377984 2.820556813e-06 0)
(0.0002433528207 2.518704787e-06 0)
(0.0002439758835 2.230385698e-06 0)
(0.0002446084991 1.956161954e-06 0)
(0.0002452519312 1.696720279e-06 0)
(0.0002459072033 1.452873196e-06 0)
(0.0002465751029 1.225553309e-06 0)
(0.000247256183 1.015793555e-06 0)
(0.000247950768 8.24709487e-07 0)
(0.0002486589169 6.534782186e-07 0)
(0.0002493805879 5.033427737e-07 0)
(0.0002501152515 3.754526489e-07 0)
(0.0002508621121 2.710605009e-07 0)
(0.0002516203021 1.913878146e-07 0)
(0.0002523887099 1.375692684e-07 0)
(0.0002531659272 1.106586619e-07 0)
(0.0002539502726 1.116204109e-07 0)
(0.00025473981 1.413064523e-07 0)
(0.0002555323511 2.004356702e-07 0)
(0.0002563254497 2.895794198e-07 0)
(0.0002571164264 4.091682946e-07 0)
(0.000218686442 6.572321618e-07 0)
(0.0002188944329 1.950414588e-06 0)
(0.0002193239546 3.170423502e-06 0)
(0.0002199558644 4.26798164e-06 0)
(0.0002207346704 5.217649197e-06 0)
(0.0002216134125 6.013393378e-06 0)
(0.0002225613553 6.656256249e-06 0)
(0.0002235536426 7.149410695e-06 0)
(0.0002245654634 7.499501468e-06 0)
(0.0002255740965 7.717427871e-06 0)
(0.0002265620124 7.816842004e-06 0)
(0.0002275171905 7.812429029e-06 0)
(0.0002284318729 7.71905744e-06 0)
(0.0002293016255 7.551331631e-06 0)
(0.0002301249188 7.323100589e-06 0)
(0.0002309027059 7.047008438e-06 0)
(0.0002316378284 6.734240711e-06 0)
(0.0002323344175 6.394447385e-06 0)
(0.00023299741 6.035763318e-06 0)
(0.0002336321736 5.664888032e-06 0)
(0.0002342442097 5.287215269e-06 0)
(0.0002348389229 4.906998475e-06 0)
(0.0002354214587 4.527531703e-06 0)
(0.0002359966012 4.151329204e-06 0)
(0.0002365687161 3.780294421e-06 0)
(0.0002371417278 3.41587312e-06 0)
(0.0002377191189 3.059186887e-06 0)
(0.0002383039445 2.711145344e-06 0)
(0.0002388988533 2.372538675e-06 0)
(0.0002395061128 2.044112477e-06 0)
(0.0002401276383 1.726627633e-06 0)
(0.0002407650183 1.42089641e-06 0)
(0.0002414195363 1.127817375e-06 0)
(0.0002420921977 8.483954701e-07 0)
(0.0002427837393 5.837375118e-07 0)
(0.0002434946827 3.35052295e-07 0)
(0.0002442252943 1.036529082e-07 0)
(0.0002449755561 -1.090533412e-07 0)
(0.0002457452413 -3.015943868e-07 0)
(0.0002465337388 -4.724359382e-07 0)
(0.0002473404414 -6.201240783e-07 0)
(0.0002481644965 -7.431069859e-07 0)
(0.0002490046231 -8.398667003e-07 0)
(0.0002498592807 -9.089740792e-07 0)
(0.0002507267218 -9.490832418e-07 0)
(0.0002516049751 -9.589422275e-07 0)
(0.0002524918403 -9.374207691e-07 0)
(0.0002533849051 -8.835359903e-07 0)
(0.0002542815755 -7.964718894e-07 0)
(0.000255179084 -6.755781747e-07 0)
(0.000218679903 5.315344252e-07 0)
(0.0002188370872 1.57985621e-06 0)
(0.0002191647718 2.579343243e-06 0)
(0.0002196545404 3.495509769e-06 0)
(0.0002202700577 4.306156595e-06 0)
(0.0002209775825 5.000906686e-06 0)
(0.0002217525276 5.575651724e-06 0)
(0.0002225744136 6.029623254e-06 0)
(0.0002234235767 6.365517309e-06 0)
(0.0002242819738 6.589706231e-06 0)
(0.000225134859 6.711276722e-06 0)
(0.000225971195 6.740723134e-06 0)
(0.0002267831189 6.689093373e-06 0)
(0.0002275654058 6.567523745e-06 0)
(0.0002283151866 6.386858891e-06 0)
(0.0002290316949 6.157295691e-06 0)
(0.0002297159055 5.888127844e-06 0)
(0.0002303701227 5.587615262e-06 0)
(0.0002309976085 5.262944226e-06 0)
(0.0002316022723 4.92024666e-06 0)
(0.0002321884093 4.564664587e-06 0)
(0.0002327604819 4.200449048e-06 0)
(0.0002333229468 3.83107945e-06 0)
(0.0002338801263 3.459390002e-06 0)
(0.000234436118 3.087694047e-06 0)
(0.0002349947348 2.717900157e-06 0)
(0.0002355594687 2.351616874e-06 0)
(0.0002361334721 1.990244849e-06 0)
(0.0002367195519 1.635058895e-06 0)
(0.0002373201731 1.287262853e-06 0)
(0.0002379374598 9.480680549e-07 0)
(0.0002385732011 6.187153739e-07 0)
(0.0002392289093 3.004892085e-07 0)
(0.0002399057992 -5.239988275e-09 0)
(0.0002406047486 -2.969972592e-07 0)
(0.0002413263091 -5.732158515e-07 0)
(0.0002420707659 -8.322393078e-07 0)
(0.0002428381605 -1.072333181e-06 0)
(0.0002436282489 -1.291704687e-06 0)
(0.0002444404859 -1.488547969e-06 0)
(0.0002452740764 -1.660946266e-06 0)
(0.0002461279582 -1.80707351e-06 0)
(0.0002470007473 -1.925132223e-06 0)
(0.0002478907848 -2.013361586e-06 0)
(0.0002487961588 -2.070084897e-06 0)
(0.0002497146972 -2.093746243e-06 0)
(0.000250643973 -2.082936939e-06 0)
(0.0002515813256 -2.036420764e-06 0)
(0.0002525238828 -1.95316029e-06 0)
(0.0002534685757 -1.832358631e-06 0)
(0.0002186756122 4.353855167e-07 0)
(0.0002187987868 1.295951161e-06 0)
(0.0002190563561 2.122283572e-06 0)
(0.0002194443327 2.888660819e-06 0)
(0.0002199375729 3.576230744e-06 0)
(0.000220511975 4.173944111e-06 0)
(0.0002211491434 4.676063012e-06 0)
(0.0002218331297 5.080320267e-06 0)
(0.0002225484518 5.387448601e-06 0)
(0.0002232806903 5.60099795e-06 0)
(0.0002240176163 5.726739761e-06 0)
(0.0002247496002 5.771855876e-06 0)
(0.0002254694161 5.74429164e-06 0)
(0.0002261719404 5.652331087e-06 0)
(0.0002268539447 5.504267604e-06 0)
(0.0002275139092 5.308111206e-06 0)
(0.0002281517795 5.071359979e-06 0)
(0.0002287686855 4.800858657e-06 0)
(0.0002293666699 4.502731946e-06 0)
(0.0002299484503 4.182370065e-06 0)
(0.000230517212 3.844452335e-06 0)
(0.0002310764278 3.49300001e-06 0)
(0.0002316297075 3.131448996e-06 0)
(0.0002321806772 2.762733177e-06 0)
(0.0002327328865 2.389371218e-06 0)
(0.0002332897381 2.013550853e-06 0)
(0.0002338544385 1.637208667e-06 0)
(0.000234429967 1.262099453e-06 0)
(0.0002350190391 8.898739953e-07 0)
(0.0002356241133 5.221335199e-07 0)
(0.0002362473959 1.604445659e-07 0)
(0.0002368907662 -1.935878325e-07 0)
(0.0002375557829 -5.382802332e-07 0)
(0.0002382437365 -8.718769785e-07 0)
(0.0002389556632 -1.192533898e-06 0)
(0.0002396922933 -1.498309849e-06 0)
(0.0002404540552 -1.787180845e-06 0)
(0.0002412410728 -2.057053235e-06 0)
(0.0002420531596 -2.305769893e-06 0)
(0.0002428898159 -2.53112643e-06 0)
(0.0002437502283 -2.730882368e-06 0)
(0.0002446332694 -2.90282338e-06 0)
(0.00024553749 -3.044765745e-06 0)
(0.0002464611212 -3.154580741e-06 0)
(0.0002474020855 -3.230239416e-06 0)
(0.0002483580074 -3.269849513e-06 0)
(0.0002493262265 -3.271684961e-06 0)
(0.000250303816 -3.234215748e-06 0)
(0.0002512876063 -3.156138072e-06 0)
(0.0002522742132 -3.036402441e-06 0)
(0.0002186725031 3.595128008e-07 0)
(0.0002187710118 1.070936491e-06 0)
(0.0002189772988 1.756947103e-06 0)
(0.000219289635 2.398053267e-06 0)
(0.0002196901515 2.979074472e-06 0)
(0.0002201615839 3.490060862e-06 0)
(0.0002206903851 3.924957735e-06 0)
(0.0002212642384 4.280508619e-06 0)
(0.0002218708544 4.555873485e-06 0)
(0.0002224986167 4.752449959e-06 0)
(0.0002231374593 4.873512199e-06 0)
(0.0002237791961 4.923697003e-06 0)
(0.0002244174502 4.908521905e-06 0)
(0.0002250474979 4.834014732e-06 0)
(0.0002256661424 4.706422405e-06 0)
(0.0002262715854 4.531964021e-06 0)
(0.0002268632596 4.316631486e-06 0)
(0.000227441631 4.066049839e-06 0)
(0.0002280079982 3.785394205e-06 0)
(0.0002285643079 3.479350934e-06 0)
(0.0002291129884 3.152112399e-06 0)
(0.0002296568023 2.807398285e-06 0)
(0.0002301987193 2.448496192e-06 0)
(0.0002307418105 2.078314568e-06 0)
(0.0002312891613 1.699444696e-06 0)
(0.0002318438014 1.314225565e-06 0)
(0.000232408648 9.247918458e-07 0)
(0.0002329864772 5.331577444e-07 0)
(0.0002335799099 1.412361575e-07 0)
(0.0002341913177 -2.490842779e-07 0)
(0.00023482282 -6.359084885e-07 0)
(0.0002354763606 -1.017287031e-06 0)
(0.0002361536307 -1.391183029e-06 0)
(0.0002368560179 -1.755479804e-06 0)
(0.0002375846299 -2.107977252e-06 0)
(0.0002383402916 -2.446374017e-06 0)
(0.0002391235241 -2.768269016e-06 0)
(0.0002399345315 -3.071172344e-06 0)
(0.0002407731909 -3.352518427e-06 0)
(0.0002416390402 -3.609686634e-06 0)
(0.0002425312682 -3.840026527e-06 0)
(0.0002434487108 -4.040890213e-06 0)
(0.0002443898448 -4.209666111e-06 0)
(0.0002453527861 -4.343812519e-06 0)
(0.0002463352964 -4.440896052e-06 0)
(0.0002473347951 -4.498631976e-06 0)
(0.0002483483735 -4.514923585e-06 0)
(0.0002493728158 -4.487899762e-06 0)
(0.0002504046247 -4.415949687e-06 0)
(0.0002514400525 -4.297754686e-06 0)
(0.0002186701681 2.984185269e-07 0)
(0.000218750224 8.894182655e-07 0)
(0.0002189180835 1.460993439e-06 0)
(0.0002191732404 1.998093238e-06 0)
(0.000219502587 2.488478929e-06 0)
(0.0002198934892 2.923413481e-06 0)
(0.0002203359346 3.296906601e-06 0)
(0.0002208204976 3.605144749e-06 0)
(0.0002213375266 3.846302088e-06 0)
(0.0002218777646 4.020406187e-06 0)
(0.0002224330518 4.12907219e-06 0)
(0.0002229965798 4.175140996e-06 0)
(0.0002235628753 4.16232394e-06 0)
(0.0002241277364 4.094906766e-06 0)
(0.0002246881774 3.97750796e-06 0)
(0.0002252423531 3.814874894e-06 0)
(0.0002257894477 3.611715837e-06 0)
(0.0002263295374 3.3725733e-06 0)
(0.0002268634449 3.101738926e-06 0)
(0.0002273925989 2.803204188e-06 0)
(0.0002279189033 2.480639982e-06 0)
(0.0002284446169 2.137399309e-06 0)
(0.0002289722471 1.776536979e-06 0)
(0.0002295044595 1.400842144e-06 0)
(0.0002300440029 1.012868616e-06 0)
(0.0002305936222 6.150458632e-07 0)
(0.00023115604 2.095832086e-07 0)
(0.0002317338888 -2.013537825e-07 0)
(0.0002323296415 -6.156381815e-07 0)
(0.000232945657 -1.031143962e-06 0)
(0.0002335841308 -1.445680776e-06 0)
(0.0002342470334 -1.857001626e-06 0)
(0.0002349360929 -2.262790323e-06 0)
(0.0002356527952 -2.66061785e-06 0)
(0.0002363983685 -3.047928327e-06 0)
(0.0002371737543 -3.422043534e-06 0)
(0.0002379795819 -3.780167029e-06 0)
(0.0002388161518 -4.119393349e-06 0)
(0.0002396834168 -4.436724907e-06 0)
(0.0002405809636 -4.729094455e-06 0)
(0.000241507997 -4.993392434e-06 0)
(0.0002424633285 -5.226500704e-06 0)
(0.0002434453666 -5.425332193e-06 0)
(0.0002444521131 -5.586872112e-06 0)
(0.0002454811652 -5.708222436e-06 0)
(0.0002465297245 -5.786649235e-06 0)
(0.000247594613 -5.819630177e-06 0)
(0.0002486722967 -5.804900366e-06 0)
(0.0002497589161 -5.740494877e-06 0)
(0.0002508503224 -5.624786407e-06 0)
(0.0002186683773 2.48503354e-07 0)
(0.0002187342947 7.409256699e-07 0)
(0.0002188726348 1.218100412e-06 0)
(0.0002190835377 1.66809853e-06 0)
(0.0002193571254 2.080901259e-06 0)
(0.000219683987 2.448915688e-06 0)
(0.0002200567173 2.7665163e-06 0)
(0.0002204681741 3.029750199e-06 0)
(0.0002209108468 3.236261817e-06 0)
(0.0002213774049 3.385200571e-06 0)
(0.0002218612815 3.477024873e-06 0)
(0.000222356885 3.513249376e-06 0)
(0.0002228596118 3.496194906e-06 0)
(0.0002233658341 3.428766904e-06 0)
(0.0002238728884 3.314263673e-06 0)
(0.0002243790394 3.156210617e-06 0)
(0.0002248834089 2.958220894e-06 0)
(0.0002253858818 2.723885378e-06 0)
(0.0002258870029 2.456692983e-06 0)
(0.0002263878727 2.159978934e-06 0)
(0.0002268900461 1.836896394e-06 0)
(0.0002273954369 1.490409507e-06 0)
(0.0002279062299 1.123295302e-06 0)
(0.0002284247897 7.381772837e-07 0)
(0.0002289536745 3.375389563e-07 0)
(0.0002294954163 -7.631374774e-08 0)
(0.0002300525222 -5.010466941e-07 0)
(0.0002306275817 -9.344055623e-07 0)
(0.0002312230772 -1.374111141e-06 0)
(0.0002318413709 -1.817843057e-06 0)
(0.0002324846719 -2.26322285e-06 0)
(0.0002331550209 -2.707775318e-06 0)
(0.0002338542711 -3.148894717e-06 0)
(0.0002345840489 -3.583828516e-06 0)
(0.0002353457217 -4.009674745e-06 0)
(0.0002361403728 -4.423381361e-06 0)
(0.0002369687729 -4.821748046e-06 0)
(0.0002378313512 -5.201436257e-06 0)
(0.0002387281676 -5.558987255e-06 0)
(0.0002396588874 -5.890846579e-06 0)
(0.0002406227575 -6.19339535e-06 0)
(0.0002416185857 -6.462988814e-06 0)
(0.0002426447262 -6.696001505e-06 0)
(0.0002436990702 -6.888877314e-06 0)
(0.0002447790447 -7.038183446e-06 0)
(0.0002458816194 -7.140666841e-06 0)
(0.0002470033223 -7.193311162e-06 0)
(0.0002481402654 -7.193392856e-06 0)
(0.0002492881805 -7.138534092e-06 0)
(0.0002504424631 -7.026749741e-06 0)
(0.0002186669712 2.072380062e-07 0)
(0.000218721794 6.180332559e-07 0)
(0.0002188369284 1.016561182e-06 0)
(0.0002190128583 1.393144258e-06 0)
(0.000219241991 1.739455227e-06 0)
(0.0002195172156 2.048900064e-06 0)
(0.0002198330357 2.316306396e-06 0)
(0.0002201840559 2.537765241e-06 0)
(0.0002205644538 2.71062391e-06 0)
(0.0002209684495 2.833440044e-06 0)
(0.000221390797 2.905849136e-06 0)
(0.0002218269644 2.928390348e-06 0)
(0.0002222731572 2.902330855e-06 0)
(0.0002227263302 2.829502059e-06 0)
(0.0002231842019 2.712150228e-06 0)
(0.0002236452439 2.552803547e-06 0)
(0.0002241086403 2.354158177e-06 0)
(0.000224574225 2.118985581e-06 0)
(0.000225042411 1.850062032e-06 0)
(0.0002255141135 1.550119746e-06 0)
(0.0002259906762 1.221816051e-06 0)
(0.0002264737909 8.677165816e-07 0)
(0.0002269654426 4.903129649e-07 0)
(0.0002274678439 9.198506548e-08 0)
(0.0002279832634 -3.249335687e-07 0)
(0.0002285141695 -7.581969856e-07 0)
(0.0002290631323 -1.205469868e-06 0)
(0.0002296326233 -1.664446014e-06 0)
(0.0002302251227 -2.132778299e-06 0)
(0.0002308430407 -2.608037364e-06 0)
(0.0002314886888 -3.087674628e-06 0)
(0.0002321642467 -3.568991442e-06 0)
(0.0002328717209 -4.049124547e-06 0)
(0.0002336129079 -4.525032943e-06 0)
(0.000234389361 -4.993485603e-06 0)
(0.0002352023555 -5.451057755e-06 0)
(0.0002360528503 -5.89413499e-06 0)
(0.0002369414499 -6.31892402e-06 0)
(0.0002378683673 -6.721471462e-06 0)
(0.000238833388 -7.09769125e-06 0)
(0.0002398358367 -7.443400593e-06 0)
(0.0002408745479 -7.754364307e-06 0)
(0.0002419478419 -8.026347159e-06 0)
(0.0002430535092 -8.255173386e-06 0)
(0.0002441888033 -8.436792043e-06 0)
(0.0002453504452 -8.567346033e-06 0)
(0.0002465346384 -8.643242349e-06 0)
(0.000247737097 -8.661221356e-06 0)
(0.0002489530866 -8.618422624e-06 0)
(0.000250177477 -8.512443852e-06 0)
(0.0002186658438 1.728155724e-07 0)
(0.0002187117791 5.15435046e-07 0)
(0.0002188083011 8.47963681e-07 0)
(0.0002189560666 1.162373294e-06 0)
(0.0002191491474 1.451615776e-06 0)
(0.0002193821011 1.709909733e-06 0)
(0.0002196508291 1.932512873e-06 0)
(0.0002199512617 2.115637548e-06 0)
(0.0002202789029 2.256482087e-06 0)
(0.0002206292224 2.353219008e-06 0)
(0.0002209980665 2.404908172e-06 0)
(0.0002213818106 2.411376072e-06 0)
(0.0002217773845 2.373091891e-06 0)
(0.0002221822968 2.291048167e-06 0)
(0.0002225946619 2.16664747e-06 0)
(0.0002230132081 2.001598432e-06 0)
(0.0002234372572 1.79782462e-06 0)
(0.0002238666858 1.557388594e-06 0)
(0.0002243018781 1.282432953e-06 0)
(0.0002247436715 9.751353967e-07 0)
(0.0002251932963 6.376839275e-07 0)
(0.0002256523445 2.722544146e-07 0)
(0.000226122662 -1.190064016e-07 0)
(0.0002266063062 -5.33956475e-07 0)
(0.0002271055633 -9.704512412e-07 0)
(0.0002276228612 -1.426261872e-06 0)
(0.0002281606925 -1.899208761e-06 0)
(0.0002287215797 -2.387009878e-06 0)
(0.0002293080715 -2.887280641e-06 0)
(0.0002299226943 -3.397500804e-06 0)
(0.0002305679084 -3.914985891e-06 0)
(0.0002312460688 -4.43686412e-06 0)
(0.0002319593858 -4.960054102e-06 0)
(0.0002327098859 -5.481245545e-06 0)
(0.0002334993682 -5.996886927e-06 0)
(0.0002343293599 -6.503181215e-06 0)
(0.0002352010696 -6.996088666e-06 0)
(0.0002361153384 -7.471337291e-06 0)
(0.0002370725918 -7.924442514e-06 0)
(0.0002380727914 -8.350736873e-06 0)
(0.0002391153898 -8.745410296e-06 0)
(0.0002401992899 -9.103561139e-06 0)
(0.0002413228093 -9.420257553e-06 0)
(0.0002424836549 -9.690608387e-06 0)
(0.0002436789079 -9.909842368e-06 0)
(0.0002449050234 -1.007339317e-05 0)
(0.0002461578448 -1.017698707e-05 0)
(0.0002474326335 -1.021672999e-05 0)
(0.0002487241174 -1.018919081e-05 0)
(0.0002500265536 -1.009147632e-05 0)
(0.0002186649226 1.439184113e-07 0)
(0.0002187036005 4.292492022e-07 0)
(0.0002187849079 7.061036143e-07 0)
(0.0002189095727 9.676733418e-07 0)
(0.0002190729095 1.207875632e-06 0)
(0.0002192707103 1.421572761e-06 0)
(0.0002194999091 1.604398469e-06 0)
(0.0002197574433 1.752713897e-06 0)
(0.0002200398556 1.863655739e-06 0)
(0.0002203436168 1.935144244e-06 0)
(0.0002206654679 1.965827863e-06 0)
(0.0002210025476 1.955000845e-06 0)
(0.000221352418 1.902517435e-06 0)
(0.0002217130932 1.808706619e-06 0)
(0.0002220830734 1.67428798e-06 0)
(0.0002224613625 1.50029205e-06 0)
(0.0002228474624 1.287988926e-06 0)
(0.0002232413523 1.038827547e-06 0)
(0.0002236434574 7.543828705e-07 0)
(0.0002240546155 4.363416349e-07 0)
(0.0002244760361 8.642594943e-08 0)
(0.0002249092285 -2.935799775e-07 0)
(0.0002253560033 -7.018512508e-07 0)
(0.000225818442 -1.136482528e-06 0)
(0.0002262988031 -1.595525955e-06 0)
(0.0002267994991 -2.076972381e-06 0)
(0.0002273230661 -2.578730603e-06 0)
(0.0002278721317 -3.098576809e-06 0)
(0.0002284493752 -3.634134499e-06 0)
(0.0002290574847 -4.182848096e-06 0)
(0.0002296991191 -4.741952526e-06 0)
(0.0002303768696 -5.308443563e-06 0)
(0.0002310932167 -5.879051645e-06 0)
(0.0002318504834 -6.450221228e-06 0)
(0.0002326507845 -7.018096057e-06 0)
(0.0002334959734 -7.578511171e-06 0)
(0.0002343875848 -8.126992763e-06 0)
(0.0002353267747 -8.658766995e-06 0)
(0.0002363142584 -9.168779139e-06 0)
(0.0002373502486 -9.651724639e-06 0)
(0.0002384343944 -1.010209347e-05 0)
(0.0002395657251 -1.051422845e-05 0)
(0.0002407426006 -1.088239715e-05 0)
(0.0002419626718 -1.120087651e-05 0)
(0.0002432228549 -1.146404913e-05 0)
(0.0002445193239 -1.166650878e-05 0)
(0.0002458475215 -1.180317093e-05 0)
(0.0002472021917 -1.186938325e-05 0)
(0.0002485774345 -1.186103209e-05 0)
(0.000249966784 -1.177463951e-05 0)
(0.000218664156 1.195682045e-07 0)
(0.0002186967974 3.565866442e-07 0)
(0.0002187654383 5.863412512e-07 0)
(0.0002188708156 8.029331758e-07 0)
(0.0002190091936 1.001008559e-06 0)
(0.0002191772937 1.175931283e-06 0)
(0.0002193728189 1.323646554e-06 0)
(0.0002195934717 1.440659201e-06 0)
(0.0002198366054 1.524086811e-06 0)
(0.0002200994896 1.571678213e-06 0)
(0.0002203795931 1.581780061e-06 0)
(0.0002206746911 1.553281754e-06 0)
(0.0002209828888 1.485557211e-06 0)
(0.0002213026503 1.378405058e-06 0)
(0.0002216328352 1.231986986e-06 0)
(0.0002219727217 1.046768172e-06 0)
(0.0002223220109 8.234608498e-07 0)
(0.0002226808125 5.629811863e-07 0)
(0.0002230496576 2.664084045e-07 0)
(0.0002234294184 -6.507009904e-08 0)
(0.0002238212927 -4.301371759e-07 0)
(0.0002242268479 -8.273779204e-07 0)
(0.0002246479291 -1.255271427e-06 0)
(0.0002250866131 -1.712223585e-06 0)
(0.0002255451922 -2.196541845e-06 0)
(0.000226026154 -2.706414088e-06 0)
(0.0002265321448 -3.239886589e-06 0)
(0.0002270659318 -3.794840577e-06 0)
(0.0002276303693 -4.368964657e-06 0)
(0.0002282283642 -4.959720943e-06 0)
(0.0002288628381 -5.564309867e-06 0)
(0.000229536686 -6.179637321e-06 0)
(0.0002302527297 -6.802284974e-06 0)
(0.0002310136659 -7.42848452e-06 0)
(0.0002318220093 -8.054097113e-06 0)
(0.0002326800298 -8.674599542e-06 0)
(0.0002335896836 -9.285078782e-06 0)
(0.0002345525409 -9.880236668e-06 0)
(0.0002355697071 -1.045440674e-05 0)
(0.0002366417439 -1.100158536e-05 0)
(0.0002377685881 -1.151547912e-05 0)
(0.0002389494758 -1.198957018e-05 0)
(0.0002401828733 -1.241720001e-05 0)
(0.0002414664195 -1.279167051e-05 0)
(0.0002427968836 -1.310636141e-05 0)
(0.0002441701457 -1.335486152e-05 0)
(0.0002455812033 -1.353110938e-05 0)
(0.0002470242045 -1.362953574e-05 0)
(0.0002484925117 -1.364520118e-05 0)
(0.0002499787964 -1.357392245e-05 0)
(0.0002186635066 9.902858714e-08 0)
(0.0002186910368 2.952702211e-07 0)
(0.0002187489444 4.851685352e-07 0)
(0.0002188379366 6.635056305e-07 0)
(0.0002189550176 8.254772397e-07 0)
(0.0002190976198 9.668325082e-07 0)