/*--------------------------------*- C++ -*----------------------------------*\
| =========                 |                                                 |
| \\      /  F ield         | foam-extend: Open Source CFD                    |
|  \\    /   O peration     | Version:     4.1                                |
|   \\  /    A nd           | Web:         http://www.foam-extend.org         |
|    \\/     M anipulation  |                                                 |
\*---------------------------------------------------------------------------*/
FoamFile
{
    version     2.0;
    format      ascii;
    class       volVectorField;
    location    "250000";
    object      vorticity;
}
// * * * * * * * * * * * * * * * * * * * * * * * * * * * * * * * * * * * * * //

dimensions      [0 0 -1 0 0 0 0];

internalField   nonuniform List<vector> 
15920
(
(0 -0 -0.008247267669)
(0 -0 -0.008402870425)
(0 -0 -0.008448304814)
(0 -0 -0.008322008854)
(0 -0 -0.008109872486)
(0 -0 -0.007869839872)
(0 -0 -0.007612385419)
(0 -0 -0.007338791523)
(0 -0 -0.007057862065)
(0 -0 -0.006780739016)
(0 -0 -0.006515172183)
(0 -0 -0.00626545558)
(0 -0 -0.006034071254)
(0 -0 -0.005822392061)
(0 -0 -0.005630746005)
(0 -0 -0.005458577405)
(0 -0 -0.005304755428)
(0 -0 -0.005167845702)
(0 -0 -0.005046285505)
(0 -0 -0.004938494371)
(0 -0 -0.004842948557)
(0 -0 -0.004758228498)
(0 -0 -0.004683043732)
(0 -0 -0.004616241762)
(0 -0 -0.004556804216)
(0 -0 -0.004503839687)
(0 -0 -0.004456573101)
(0 -0 -0.004414332808)
(0 -0 -0.004376536968)
(0 -0 -0.004342680233)
(0 -0 -0.004312321307)
(0 -0 -0.004285071728)
(0 -0 -0.004260586016)
(0 -0 -0.004238553256)
(0 -0 -0.004218690123)
(0 -0 -0.004200735293)
(0 -0 -0.004184444554)
(0 -0 -0.004169586273)
(0 -0 -0.004155937513)
(0 -0 -0.004143281145)
(0 -0 -0.004131404624)
(0 -0 -0.004120099823)
(0 -0 -0.004109162847)
(0 -0 -0.004098393711)
(0 -0 -0.004087596093)
(0 -0 -0.004076577345)
(0 -0 -0.004065148783)
(0 -0 -0.004053126211)
(0 -0 -0.004040330616)
(0 -0 -0.004026589001)
(0 -0 0.0003567987576)
(0 -0 -5.007090031e-06)
(0 -0 -0.0003926477381)
(0 -0 -0.0007942625391)
(0 -0 -0.001192650767)
(0 -0 -0.001571474547)
(0 -0 -0.001921608517)
(0 -0 -0.002237848687)
(0 -0 -0.002516005923)
(0 -0 -0.002753667591)
(0 -0 -0.002951099385)
(0 -0 -0.003110746759)
(0 -0 -0.003236232298)
(0 -0 -0.003331682354)
(0 -0 -0.0034013849)
(0 -0 -0.003449542953)
(0 -0 -0.003480069903)
(0 -0 -0.003496462534)
(0 -0 -0.003501753254)
(0 -0 -0.003498512321)
(0 -0 -0.003488876044)
(0 -0 -0.00347458906)
(0 -0 -0.00345705348)
(0 -0 -0.003437379858)
(0 -0 -0.003416435392)
(0 -0 -0.003394886392)
(0 -0 -0.0033732354)
(0 -0 -0.003351853555)
(0 -0 -0.003331008364)
(0 -0 -0.00331088697)
(0 -0 -0.003291615142)
(0 -0 -0.003273272338)
(0 -0 -0.003255903357)
(0 -0 -0.003239527204)
(0 -0 -0.003224143767)
(0 -0 -0.003209738845)
(0 -0 -0.003196288026)
(0 -0 -0.003183759644)
(0 -0 -0.003172116861)
(0 -0 -0.003161318823)
(0 -0 -0.003151321087)
(0 -0 -0.003142075792)
(0 -0 -0.003133531838)
(0 -0 -0.00312563507)
(0 -0 -0.003118328486)
(0 -0 -0.003111552361)
(0 -0 -0.003105244266)
(0 -0 -0.003099339062)
(0 -0 -0.003093768885)
(0 -0 -0.003088463094)
(0 -0 0.0001686852344)
(0 -0 0.0002474775915)
(0 -0 0.000312323276)
(0 -0 0.0003410739317)
(0 -0 0.0003276697974)
(0 -0 0.0002742003822)
(0 -0 0.0001871329705)
(0 -0 7.439512152e-05)
(0 -0 -5.603962364e-05)
(0 -0 -0.0001967889662)
(0 -0 -0.0003414999584)
(0 -0 -0.000485104249)
(0 -0 -0.0006238460629)
(0 -0 -0.0007551434676)
(0 -0 -0.0008773986602)
(0 -0 -0.0009897997056)
(0 -0 -0.001092127111)
(0 -0 -0.001184578988)
(0 -0 -0.001267626299)
(0 -0 -0.001341901566)
(0 -0 -0.001408118207)
(0 -0 -0.001467015219)
(0 -0 -0.001519321434)
(0 -0 -0.001565732075)
(0 -0 -0.001606896908)
(0 -0 -0.001643414234)
(0 -0 -0.001675828549)
(0 -0 -0.001704630955)
(0 -0 -0.001730261562)
(0 -0 -0.00175311322)
(0 -0 -0.001773536019)
(0 -0 -0.001791842094)
(0 -0 -0.001808310344)
(0 -0 -0.001823190724)
(0 -0 -0.001836707936)
(0 -0 -0.001849064478)
(0 -0 -0.001860443175)
(0 -0 -0.001871009304)
(0 -0 -0.001880912387)
(0 -0 -0.001890287682)
(0 -0 -0.001899257442)
(0 -0 -0.001907931979)
(0 -0 -0.001916410458)
(0 -0 -0.001924781484)
(0 -0 -0.001933123604)
(0 -0 -0.001941505734)
(0 -0 -0.001949987574)
(0 -0 -0.001958620048)
(0 -0 -0.001967445688)
(0 -0 -0.001976498972)
(0 -0 0.0001523778766)
(0 -0 0.0001545790981)
(0 -0 0.0001645514685)
(0 -0 0.000182840485)
(0 -0 0.0002069799409)
(0 -0 0.0002327731949)
(0 -0 0.0002556869785)
(0 -0 0.0002720722713)
(0 -0 0.0002795957521)
(0 -0 0.0002771962431)
(0 -0 0.0002648778156)
(0 -0 0.0002434308764)
(0 -0 0.000214127713)
(0 -0 0.0001784562375)
(0 -0 0.0001379272693)
(0 -0 9.395007546e-05)
(0 -0 4.776308263e-05)
(0 -0 4.059149094e-07)
(0 -0 -4.728053876e-05)
(0 -0 -9.463775823e-05)
(0 -0 -0.000141165812)
(0 -0 -0.0001864978621)
(0 -0 -0.0002303760839)
(0 -0 -0.0002726298864)
(0 -0 -0.0003131578368)
(0 -0 -0.000351912242)
(0 -0 -0.0003888863563)
(0 -0 -0.0004241041096)
(0 -0 -0.0004576120139)
(0 -0 -0.0004894729088)
(0 -0 -0.0005197612735)
(0 -0 -0.0005485598491)
(0 -0 -0.000575957296)
(0 -0 -0.0006020465743)
(0 -0 -0.0006269237455)
(0 -0 -0.000650686971)
(0 -0 -0.0006734355906)
(0 -0 -0.0006952692687)
(0 -0 -0.0007162872389)
(0 -0 -0.0007365876995)
(0 -0 -0.0007562672595)
(0 -0 -0.0007754205643)
(0 -0 -0.0007941398674)
(0 -0 -0.0008125146625)
(0 -0 -0.0008306312741)
(0 -0 -0.0008485723896)
(0 -0 -0.0008664166146)
(0 -0 -0.0008842381489)
(0 -0 -0.0009021065227)
(0 -0 -0.0009200863298)
(0 -0 0.0001036769694)
(0 -0 0.0001048655717)
(0 -0 0.0001063649266)
(0 -0 0.0001086163091)
(0 -0 0.0001123658872)
(0 -0 0.0001182607575)
(0 -0 0.0001265441712)
(0 -0 0.0001369705407)
(0 -0 0.0001488964034)
(0 -0 0.000161441206)
(0 -0 0.0001736597501)
(0 -0 0.0001846897477)
(0 -0 0.0001938462395)
(0 -0 0.0002006583214)
(0 -0 0.0002048642796)
(0 -0 0.0002063826064)
(0 -0 0.0002052721728)
(0 -0 0.0002016910747)
(0 -0 0.000195860025)
(0 -0 0.0001880329884)
(0 -0 0.000178475368)
(0 -0 0.0001674488048)
(0 -0 0.0001552012513)
(0 -0 0.000141961044)
(0 -0 0.0001279338744)
(0 -0 0.00011330175)
(0 -0 9.8223297e-05)
(0 -0 8.283490759e-05)
(0 -0 6.72523629e-05)
(0 -0 5.157266211e-05)
(0 -0 3.58758627e-05)
(0 -0 2.022679488e-05)
(0 -0 4.676574433e-06)
(0 -0 -1.073610002e-05)
(0 -0 -2.598380152e-05)
(0 -0 -4.104936174e-05)
(0 -0 -5.59248869e-05)
(0 -0 -7.061079458e-05)
(0 -0 -8.511480903e-05)
(0 -0 -9.945170365e-05)
(0 -0 -0.0001136389092)
(0 -0 -0.0001277011825)
(0 -0 -0.0001416688934)
(0 -0 -0.0001555767109)
(0 -0 -0.0001694628412)
(0 -0 -0.0001833684143)
(0 -0 -0.0001973369272)
(0 -0 -0.0002114136868)
(0 -0 -0.000225645499)
(0 -0 -0.0002400807782)
(0 -0 8.201413237e-05)
(0 -0 8.220960265e-05)
(0 -0 8.247042632e-05)
(0 -0 8.276651782e-05)
(0 -0 8.311092328e-05)
(0 -0 8.359175755e-05)
(0 -0 8.436661256e-05)
(0 -0 8.562435103e-05)
(0 -0 8.75329377e-05)
(0 -0 9.019489555e-05)
(0 -0 9.362389525e-05)
(0 -0 9.774496949e-05)
(0 -0 0.0001024121833)
(0 -0 0.0001074345738)
(0 -0 0.0001126027666)
(0 -0 0.0001177116525)
(0 -0 0.0001225767737)
(0 -0 0.000127043986)
(0 -0 0.0001309933568)
(0 -0 0.0001343388932)
(0 -0 0.0001370256637)
(0 -0 0.0001390255545)
(0 -0 0.0001403325355)
(0 -0 0.0001409579958)
(0 -0 0.0001409264816)
(0 -0 0.0001402719914)
(0 -0 0.0001390348714)
(0 -0 0.0001372592927)
(0 -0 0.0001349912592)
(0 -0 0.000132277072)
(0 -0 0.0001291621567)
(0 -0 0.0001256901837)
(0 -0 0.0001219023831)
(0 -0 0.0001178369621)
(0 -0 0.0001135289329)
(0 -0 0.0001090088256)
(0 -0 0.0001043034094)
(0 -0 9.943642416e-05)
(0 -0 9.442771311e-05)
(0 -0 8.92936035e-05)
(0 -0 8.404306996e-05)
(0 -0 7.868373611e-05)
(0 -0 7.322035843e-05)
(0 -0 6.765418379e-05)
(0 -0 6.198287791e-05)
(0 -0 5.620060217e-05)
(0 -0 5.029814723e-05)
(0 -0 4.426305094e-05)
(0 -0 3.807999e-05)
(0 -0 3.173116932e-05)
(0 -0 6.550617668e-05)
(0 -0 6.5674276e-05)
(0 -0 6.589304145e-05)
(0 -0 6.614844927e-05)
(0 -0 6.642382663e-05)
(0 -0 6.669970122e-05)
(0 -0 6.69607483e-05)
(0 -0 6.720577867e-05)
(0 -0 6.745337517e-05)
(0 -0 6.773970452e-05)
(0 -0 6.811077922e-05)
(0 -0 6.861308617e-05)
(0 -0 6.928519628e-05)
(0 -0 7.015181031e-05)
(0 -0 7.122096483e-05)
(0 -0 7.248429476e-05)
(0 -0 7.391952023e-05)
(0 -0 7.549408593e-05)
(0 -0 7.716906158e-05)
(0 -0 7.890272193e-05)
(0 -0 8.06534942e-05)
(0 -0 8.238216251e-05)
(0 -0 8.405335735e-05)
(0 -0 8.563643667e-05)
(0 -0 8.710589171e-05)
(0 -0 8.844140361e-05)
(0 -0 8.96276551e-05)
(0 -0 9.065398129e-05)
(0 -0 9.151392093e-05)
(0 -0 9.220473027e-05)
(0 -0 9.272681626e-05)
(0 -0 9.308339254e-05)
(0 -0 9.327927393e-05)
(0 -0 9.332064472e-05)
(0 -0 9.321551577e-05)
(0 -0 9.297376195e-05)
(0 -0 9.260570152e-05)
(0 -0 9.212096678e-05)
(0 -0 9.152879486e-05)
(0 -0 9.083879654e-05)
(0 -0 9.005672591e-05)
(0 -0 8.918951224e-05)
(0 -0 8.824441887e-05)
(0 -0 8.722808959e-05)
(0 -0 8.614616412e-05)
(0 -0 8.500307043e-05)
(0 -0 8.380189399e-05)
(0 -0 8.254423051e-05)
(0 -0 8.123028449e-05)
(0 -0 7.985968993e-05)
(0 -0 5.300136101e-05)
(0 -0 5.310814147e-05)
(0 -0 5.324330873e-05)
(0 -0 5.340096794e-05)
(0 -0 5.357687341e-05)
(0 -0 5.376612881e-05)
(0 -0 5.396215156e-05)
(0 -0 5.41568977e-05)
(0 -0 5.434230616e-05)
(0 -0 5.451211071e-05)
(0 -0 5.466334384e-05)
(0 -0 5.479722093e-05)
(0 -0 5.491915248e-05)
(0 -0 5.503784018e-05)
(0 -0 5.516378132e-05)
(0 -0 5.530765798e-05)
(0 -0 5.547896558e-05)
(0 -0 5.568504918e-05)
(0 -0 5.593058703e-05)
(0 -0 5.621747553e-05)
(0 -0 5.654501421e-05)
(0 -0 5.691027322e-05)
(0 -0 5.730854839e-05)
(0 -0 5.77338436e-05)
(0 -0 5.81793451e-05)
(0 -0 5.863786378e-05)
(0 -0 5.910222577e-05)
(0 -0 5.956560064e-05)
(0 -0 6.002173481e-05)
(0 -0 6.04652206e-05)
(0 -0 6.089116016e-05)
(0 -0 6.129556906e-05)
(0 -0 6.16761841e-05)
(0 -0 6.203206229e-05)
(0 -0 6.236212476e-05)
(0 -0 6.266673737e-05)
(0 -0 6.294684881e-05)
(0 -0 6.320303228e-05)
(0 -0 6.343626465e-05)
(0 -0 6.364741917e-05)
(0 -0 6.384112254e-05)
(0 -0 6.401989421e-05)
(0 -0 6.418546121e-05)
(0 -0 6.433937316e-05)
(0 -0 6.44831092e-05)
(0 -0 6.461805162e-05)
(0 -0 6.474541374e-05)
(0 -0 6.486619821e-05)
(0 -0 6.498093701e-05)
(0 -0 6.508910592e-05)
(0 -0 4.343141405e-05)
(0 -0 4.349395992e-05)
(0 -0 4.356720162e-05)
(0 -0 4.364678717e-05)
(0 -0 4.373020668e-05)
(0 -0 4.381577973e-05)
(0 -0 4.390225343e-05)
(0 -0 4.398814242e-05)
(0 -0 4.407138691e-05)
(0 -0 4.414942118e-05)
(0 -0 4.421944256e-05)
(0 -0 4.427877442e-05)
(0 -0 4.432525425e-05)
(0 -0 4.435755728e-05)
(0 -0 4.43753858e-05)
(0 -0 4.437950017e-05)
(0 -0 4.437160499e-05)
(0 -0 4.435413384e-05)
(0 -0 4.4329991e-05)
(0 -0 4.430229806e-05)
(0 -0 4.427416766e-05)
(0 -0 4.424851023e-05)
(0 -0 4.422787979e-05)
(0 -0 4.421437088e-05)
(0 -0 4.42095761e-05)
(0 -0 4.421460448e-05)
(0 -0 4.423012985e-05)
(0 -0 4.425653187e-05)
(0 -0 4.429369262e-05)
(0 -0 4.434137266e-05)
(0 -0 4.439976201e-05)
(0 -0 4.446869019e-05)
(0 -0 4.454834325e-05)
(0 -0 4.463928363e-05)
(0 -0 4.4741553e-05)
(0 -0 4.48541764e-05)
(0 -0 4.497625176e-05)
(0 -0 4.510785423e-05)
(0 -0 4.5249329e-05)
(0 -0 4.540110329e-05)
(0 -0 4.556374094e-05)
(0 -0 4.573786387e-05)
(0 -0 4.592411576e-05)
(0 -0 4.612313169e-05)
(0 -0 4.633552807e-05)
(0 -0 4.656190321e-05)
(0 -0 4.680283413e-05)
(0 -0 4.705886888e-05)
(0 -0 4.733049512e-05)
(0 -0 4.761812956e-05)
(0 -0 3.587011526e-05)
(0 -0 3.590711423e-05)
(0 -0 3.594337208e-05)
(0 -0 3.597503017e-05)
(0 -0 3.599990803e-05)
(0 -0 3.601679868e-05)
(0 -0 3.602537109e-05)
(0 -0 3.602553515e-05)
(0 -0 3.60170369e-05)
(0 -0 3.599948056e-05)
(0 -0 3.597246555e-05)
(0 -0 3.593565091e-05)
(0 -0 3.588875926e-05)
(0 -0 3.583159113e-05)
(0 -0 3.576407783e-05)
(0 -0 3.568634896e-05)
(0 -0 3.55987827e-05)
(0 -0 3.550203073e-05)
(0 -0 3.539702673e-05)
(0 -0 3.5284982e-05)
(0 -0 3.516735865e-05)
(0 -0 3.50458126e-05)
(0 -0 3.492211403e-05)
(0 -0 3.479806829e-05)
(0 -0 3.467544756e-05)
(0 -0 3.455599663e-05)
(0 -0 3.444127497e-05)
(0 -0 3.433267203e-05)
(0 -0 3.423190062e-05)
(0 -0 3.414050803e-05)
(0 -0 3.406023238e-05)
(0 -0 3.399279407e-05)
(0 -0 3.393898123e-05)
(0 -0 3.389897099e-05)
(0 -0 3.38735383e-05)
(0 -0 3.386348584e-05)
(0 -0 3.386950717e-05)
(0 -0 3.389218434e-05)
(0 -0 3.393199902e-05)
(0 -0 3.39893435e-05)
(0 -0 3.406453596e-05)
(0 -0 3.415782837e-05)
(0 -0 3.426941029e-05)
(0 -0 3.439941405e-05)
(0 -0 3.454792063e-05)
(0 -0 3.471497012e-05)
(0 -0 3.490057517e-05)
(0 -0 3.510473298e-05)
(0 -0 3.532743141e-05)
(0 -0 3.556865283e-05)
(0 -0 2.977843586e-05)
(0 -0 2.979871581e-05)
(0 -0 2.981015438e-05)
(0 -0 2.980908312e-05)
(0 -0 2.979352818e-05)
(0 -0 2.976262924e-05)
(0 -0 2.971663895e-05)
(0 -0 2.965617471e-05)
(0 -0 2.958168937e-05)
(0 -0 2.949348794e-05)
(0 -0 2.939192644e-05)
(0 -0 2.92775158e-05)
(0 -0 2.915091127e-05)
(0 -0 2.901287785e-05)
(0 -0 2.886428502e-05)
(0 -0 2.870611745e-05)
(0 -0 2.853947476e-05)
(0 -0 2.836556078e-05)
(0 -0 2.818567816e-05)
(0 -0 2.80012316e-05)
(0 -0 2.781372395e-05)
(0 -0 2.762473179e-05)
(0 -0 2.743585942e-05)
(0 -0 2.724870797e-05)
(0 -0 2.706482927e-05)
(0 -0 2.688556637e-05)
(0 -0 2.6712525e-05)
(0 -0 2.654737453e-05)
(0 -0 2.639189959e-05)
(0 -0 2.62478699e-05)
(0 -0 2.611652015e-05)
(0 -0 2.599905446e-05)
(0 -0 2.589678647e-05)
(0 -0 2.581093035e-05)
(0 -0 2.574252116e-05)
(0 -0 2.5692409e-05)
(0 -0 2.566127812e-05)
(0 -0 2.564965964e-05)
(0 -0 2.565793972e-05)
(0 -0 2.568636686e-05)
(0 -0 2.573505855e-05)
(0 -0 2.580400703e-05)
(0 -0 2.589308611e-05)
(0 -0 2.600206187e-05)
(0 -0 2.613060731e-05)
(0 -0 2.6278321e-05)
(0 -0 2.644474679e-05)
(0 -0 2.662939058e-05)
(0 -0 2.683173236e-05)
(0 -0 2.705123507e-05)
(0 -0 2.47996638e-05)
(0 -0 2.480852611e-05)
(0 -0 2.48024233e-05)
(0 -0 2.477766279e-05)
(0 -0 2.4732348e-05)
(0 -0 2.46658469e-05)
(0 -0 2.457884045e-05)
(0 -0 2.447247203e-05)
(0 -0 2.434771636e-05)
(0 -0 2.420537827e-05)
(0 -0 2.404631595e-05)
(0 -0 2.387156011e-05)
(0 -0 2.368230041e-05)
(0 -0 2.347984327e-05)
(0 -0 2.326560362e-05)
(0 -0 2.304111381e-05)
(0 -0 2.280801747e-05)
(0 -0 2.256804886e-05)
(0 -0 2.232301611e-05)
(0 -0 2.207479344e-05)
(0 -0 2.182530624e-05)
(0 -0 2.157649345e-05)
(0 -0 2.133028472e-05)
(0 -0 2.108840229e-05)
(0 -0 2.085251301e-05)
(0 -0 2.062441327e-05)
(0 -0 2.040585709e-05)
(0 -0 2.019869848e-05)
(0 -0 2.000443811e-05)
(0 -0 1.982453433e-05)
(0 -0 1.966053403e-05)
(0 -0 1.951393599e-05)
(0 -0 1.938610923e-05)
(0 -0 1.927824411e-05)
(0 -0 1.919132898e-05)
(0 -0 1.912614305e-05)
(0 -0 1.908325969e-05)
(0 -0 1.906305689e-05)
(0 -0 1.906573105e-05)
(0 -0 1.909130817e-05)
(0 -0 1.913964994e-05)
(0 -0 1.921045781e-05)
(0 -0 1.930328067e-05)
(0 -0 1.941752977e-05)
(0 -0 1.955250007e-05)
(0 -0 1.970739365e-05)
(0 -0 1.988134122e-05)
(0 -0 2.007341966e-05)
(0 -0 2.028266683e-05)
(0 -0 2.050809581e-05)
(0 -0 2.068245222e-05)
(0 -0 2.068339017e-05)
(0 -0 2.066444939e-05)
(0 -0 2.062177351e-05)
(0 -0 2.055345431e-05)
(0 -0 2.045899666e-05)
(0 -0 2.033939316e-05)
(0 -0 2.019618411e-05)
(0 -0 2.003074649e-05)
(0 -0 1.984428162e-05)
(0 -0 1.963805664e-05)
(0 -0 1.941353151e-05)
(0 -0 1.917233841e-05)
(0 -0 1.891623018e-05)
(0 -0 1.864706714e-05)
(0 -0 1.836682446e-05)
(0 -0 1.807758479e-05)
(0 -0 1.778151553e-05)
(0 -0 1.748085015e-05)
(0 -0 1.71778744e-05)
(0 -0 1.687491652e-05)
(0 -0 1.657427169e-05)
(0 -0 1.627806962e-05)
(0 -0 1.598850675e-05)
(0 -0 1.570767218e-05)
(0 -0 1.543769549e-05)
(0 -0 1.518036735e-05)
(0 -0 1.493732967e-05)
(0 -0 1.471033087e-05)
(0 -0 1.450112565e-05)
(0 -0 1.431141792e-05)
(0 -0 1.414279442e-05)
(0 -0 1.399666701e-05)
(0 -0 1.38742334e-05)
(0 -0 1.377645026e-05)
(0 -0 1.370402259e-05)
(0 -0 1.365741032e-05)
(0 -0 1.363684312e-05)
(0 -0 1.364233462e-05)
(0 -0 1.367369263e-05)
(0 -0 1.373052595e-05)
(0 -0 1.381225211e-05)
(0 -0 1.391811061e-05)
(0 -0 1.404718334e-05)
(0 -0 1.419841965e-05)
(0 -0 1.437066175e-05)
(0 -0 1.456266743e-05)
(0 -0 1.477313051e-05)
(0 -0 1.500070049e-05)
(0 -0 1.524400148e-05)
(0 -0 1.724723755e-05)
(0 -0 1.724257215e-05)
(0 -0 1.721386542e-05)
(0 -0 1.71570147e-05)
(0 -0 1.707004204e-05)
(0 -0 1.695253417e-05)
(0 -0 1.680572698e-05)
(0 -0 1.663148106e-05)
(0 -0 1.643149934e-05)
(0 -0 1.620730644e-05)
(0 -0 1.596050826e-05)
(0 -0 1.569292878e-05)
(0 -0 1.540658551e-05)
(0 -0 1.510362942e-05)
(0 -0 1.478632553e-05)
(0 -0 1.445705646e-05)
(0 -0 1.411831219e-05)
(0 -0 1.377266385e-05)
(0 -0 1.342274229e-05)
(0 -0 1.307123485e-05)
(0 -0 1.272077568e-05)
(0 -0 1.237398903e-05)
(0 -0 1.203351487e-05)
(0 -0 1.170191717e-05)
(0 -0 1.138157266e-05)
(0 -0 1.107447058e-05)
(0 -0 1.078262505e-05)
(0 -0 1.050803525e-05)
(0 -0 1.025267809e-05)
(0 -0 1.001848863e-05)
(0 -0 9.807310624e-06)
(0 -0 9.620836631e-06)
(0 -0 9.460548648e-06)
(0 -0 9.327670427e-06)
(0 -0 9.223139215e-06)
(0 -0 9.147598747e-06)
(0 -0 9.101408373e-06)
(0 -0 9.08465909e-06)
(0 -0 9.097188749e-06)
(0 -0 9.138593757e-06)
(0 -0 9.20823945e-06)
(0 -0 9.305273418e-06)
(0 -0 9.428644556e-06)
(0 -0 9.577127134e-06)
(0 -0 9.749347079e-06)
(0 -0 9.943808223e-06)
(0 -0 1.015891799e-05)
(0 -0 1.039301307e-05)
(0 -0 1.064438441e-05)
(0 -0 1.091129906e-05)
(0 -0 1.43629466e-05)
(0 -0 1.435426384e-05)
(0 -0 1.431785898e-05)
(0 -0 1.424932089e-05)
(0 -0 1.414656268e-05)
(0 -0 1.400921976e-05)
(0 -0 1.383873147e-05)
(0 -0 1.36372336e-05)
(0 -0 1.340670877e-05)
(0 -0 1.314895878e-05)
(0 -0 1.286588342e-05)
(0 -0 1.255962872e-05)
(0 -0 1.223255986e-05)
(0 -0 1.18871929e-05)
(0 -0 1.152616853e-05)
(0 -0 1.115225116e-05)
(0 -0 1.076831386e-05)
(0 -0 1.037731441e-05)
(0 -0 9.982261522e-06)
(0 -0 9.586138908e-06)
(0 -0 9.192031421e-06)
(0 -0 8.803001321e-06)
(0 -0 8.422093357e-06)
(0 -0 8.051994444e-06)
(0 -0 7.695176312e-06)
(0 -0 7.354026029e-06)
(0 -0 7.030843079e-06)
(0 -0 6.727861371e-06)
(0 -0 6.447260721e-06)
(0 -0 6.191150217e-06)
(0 -0 5.96152022e-06)
(0 -0 5.76017786e-06)
(0 -0 5.588681668e-06)
(0 -0 5.448289377e-06)
(0 -0 5.339927717e-06)
(0 -0 5.264185306e-06)
(0 -0 5.221322875e-06)
(0 -0 5.211291629e-06)
(0 -0 5.233752195e-06)
(0 -0 5.288091652e-06)
(0 -0 5.373440249e-06)
(0 -0 5.488690379e-06)
(0 -0 5.632518449e-06)
(0 -0 5.803408787e-06)
(0 -0 5.99967916e-06)
(0 -0 6.219508671e-06)
(0 -0 6.460968275e-06)
(0 -0 6.722052051e-06)
(0 -0 7.000705884e-06)
(0 -0 7.294851764e-06)
(0 -0 1.193219125e-05)
(0 -0 1.192060212e-05)
(0 -0 1.187793444e-05)
(0 -0 1.179940391e-05)
(0 -0 1.168279081e-05)
(0 -0 1.152776001e-05)
(0 -0 1.133593061e-05)
(0 -0 1.110968622e-05)
(0 -0 1.085126101e-05)
(0 -0 1.056270609e-05)
(0 -0 1.024618811e-05)
(0 -0 9.904149934e-06)
(0 -0 9.539281172e-06)
(0 -0 9.154441102e-06)
(0 -0 8.752623837e-06)
(0 -0 8.336951823e-06)
(0 -0 7.910663881e-06)
(0 -0 7.477053717e-06)
(0 -0 7.03946621e-06)
(0 -0 6.601343261e-06)
(0 -0 6.166172604e-06)
(0 -0 5.737395271e-06)
(0 -0 5.318180795e-06)
(0 -0 4.911579856e-06)
(0 -0 4.520463457e-06)
(0 -0 4.147531488e-06)
(0 -0 3.795344712e-06)
(0 -0 3.466356667e-06)
(0 -0 3.162929682e-06)
(0 -0 2.887322527e-06)
(0 -0 2.641648181e-06)
(0 -0 2.427811208e-06)
(0 -0 2.247439738e-06)
(0 -0 2.101827479e-06)
(0 -0 1.991897196e-06)
(0 -0 1.91818933e-06)
(0 -0 1.880871338e-06)
(0 -0 1.879759022e-06)
(0 -0 1.914341779e-06)
(0 -0 1.983807236e-06)
(0 -0 2.087063927e-06)
(0 -0 2.222762476e-06)
(0 -0 2.38931642e-06)
(0 -0 2.584924802e-06)
(0 -0 2.807599167e-06)
(0 -0 3.055196472e-06)
(0 -0 3.325456146e-06)
(0 -0 3.616036291e-06)
(0 -0 3.924545081e-06)
(0 -0 4.248567731e-06)
(0 -0 9.881650772e-06)
(0 -0 9.867960624e-06)
(0 -0 9.820052482e-06)
(0 -0 9.732709432e-06)
(0 -0 9.603566222e-06)
(0 -0 9.432306813e-06)
(0 -0 9.220716036e-06)
(0 -0 8.971408768e-06)
(0 -0 8.686854644e-06)
(0 -0 8.369338858e-06)
(0 -0 8.021279647e-06)
(0 -0 7.645400048e-06)
(0 -0 7.244694055e-06)
(0 -0 6.822337665e-06)
(0 -0 6.381647542e-06)
(0 -0 5.926072858e-06)
(0 -0 5.459163711e-06)
(0 -0 4.984592719e-06)
(0 -0 4.506126561e-06)
(0 -0 4.02765798e-06)
(0 -0 3.553008831e-06)
(0 -0 3.085909721e-06)
(0 -0 2.629993226e-06)
(0 -0 2.188697778e-06)
(0 -0 1.765228357e-06)
(0 -0 1.362562947e-06)
(0 -0 9.834859113e-07)
(0 -0 6.306266748e-07)
(0 -0 3.064864632e-07)
(0 -0 1.343972869e-08)
(0 -0 -2.462965799e-07)
(0 -0 -4.70722544e-07)
(0 -0 -6.581295939e-07)
(0 -0 -8.071700969e-07)
(0 -0 -9.169052182e-07)
(0 -0 -9.868236001e-07)
(0 -0 -1.016833713e-06)
(0 -0 -1.007239151e-06)
(0 -0 -9.587073374e-07)
(0 -0 -8.7223946e-07)
(0 -0 -7.491451499e-07)
(0 -0 -5.910211898e-07)
(0 -0 -3.997301546e-07)
(0 -0 -1.773738785e-07)
(0 -0 7.374098423e-08)
(0 -0 3.511437807e-07)
(0 -0 6.522424937e-07)
(0 -0 9.743632429e-07)
(0 -0 1.314784572e-06)
(0 -0 1.670767529e-06)
(0 -0 8.155513619e-06)
(0 -0 8.140326806e-06)
(0 -0 8.087923688e-06)
(0 -0 7.992609098e-06)
(0 -0 7.851863953e-06)
(0 -0 7.665386594e-06)
(0 -0 7.43512031e-06)
(0 -0 7.163902968e-06)
(0 -0 6.854432434e-06)
(0 -0 6.509219171e-06)
(0 -0 6.130916829e-06)
(0 -0 5.722499768e-06)
(0 -0 5.28722482e-06)
(0 -0 4.828541331e-06)
(0 -0 4.35005519e-06)
(0 -0 3.855534764e-06)
(0 -0 3.348950871e-06)
(0 -0 2.834449709e-06)
(0 -0 2.316333377e-06)
(0 -0 1.798882758e-06)
(0 -0 1.286369001e-06)
(0 -0 7.829368186e-07)
(0 -0 2.924998937e-07)
(0 -0 -1.813055184e-07)
(0 -0 -6.351110705e-07)
(0 -0 -1.065767548e-06)
(0 -0 -1.470289508e-06)
(0 -0 -1.845818083e-06)
(0 -0 -2.189612477e-06)
(0 -0 -2.49907254e-06)
(0 -0 -2.771789769e-06)
(0 -0 -3.005618788e-06)
(0 -0 -3.198755773e-06)
(0 -0 -3.349806854e-06)
(0 -0 -3.457832586e-06)
(0 -0 -3.522363107e-06)
(0 -0 -3.543387712e-06)
(0 -0 -3.521328327e-06)
(0 -0 -3.457007602e-06)
(0 -0 -3.35161943e-06)
(0 -0 -3.206704366e-06)
(0 -0 -3.024126918e-06)
(0 -0 -2.806048476e-06)
(0 -0 -2.554891169e-06)
(0 -0 -2.273292971e-06)
(0 -0 -1.964059414e-06)
(0 -0 -1.630117589e-06)
(0 -0 -1.274474658e-06)
(0 -0 -9.001807038e-07)
(0 -0 -5.102955233e-07)
(0 -0 6.710881548e-06)
(0 -0 6.694665307e-06)
(0 -0 6.638324314e-06)
(0 -0 6.535654157e-06)
(0 -0 6.383974449e-06)
(0 -0 6.182997113e-06)
(0 -0 5.934823177e-06)
(0 -0 5.642512714e-06)
(0 -0 5.308985408e-06)
(0 -0 4.936952372e-06)
(0 -0 4.529251858e-06)
(0 -0 4.089045072e-06)
(0 -0 3.619810848e-06)
(0 -0 3.125296726e-06)
(0 -0 2.609522999e-06)
(0 -0 2.076793142e-06)
(0 -0 1.531650445e-06)
(0 -0 9.787613427e-07)
(0 -0 4.227706935e-07)
(0 -0 -1.317143203e-07)
(0 -0 -6.80190971e-07)
(0 -0 -1.218321904e-06)
(0 -0 -1.741991666e-06)
(0 -0 -2.247336131e-06)
(0 -0 -2.730733412e-06)
(0 -0 -3.188761661e-06)
(0 -0 -3.618148289e-06)
(0 -0 -4.015738666e-06)
(0 -0 -4.378500864e-06)
(0 -0 -4.703568845e-06)
(0 -0 -4.988314881e-06)
(0 -0 -5.230435357e-06)
(0 -0 -5.42803269e-06)
(0 -0 -5.579678485e-06)
(0 -0 -5.684448966e-06)
(0 -0 -5.741931529e-06)
(0 -0 -5.752208654e-06)
(0 -0 -5.71582966e-06)
(0 -0 -5.633780527e-06)
(0 -0 -5.507457528e-06)
(0 -0 -5.338643945e-06)
(0 -0 -5.129484092e-06)
(0 -0 -4.882448442e-06)
(0 -0 -4.600287942e-06)
(0 -0 -4.285981265e-06)
(0 -0 -3.94268134e-06)
(0 -0 -3.573665514e-06)
(0 -0 -3.182289947e-06)
(0 -0 -2.771948077e-06)
(0 -0 -2.346034301e-06)
(0 -0 5.514466101e-06)
(0 -0 5.497598981e-06)
(0 -0 5.437748545e-06)
(0 -0 5.32818795e-06)
(0 -0 5.166070291e-06)
(0 -0 4.951125695e-06)
(0 -0 4.68561752e-06)
(0 -0 4.372818501e-06)
(0 -0 4.015827299e-06)
(0 -0 3.617481027e-06)
(0 -0 3.180742356e-06)
(0 -0 2.708986331e-06)
(0 -0 2.206070246e-06)
(0 -0 1.676286595e-06)
(0 -0 1.124266294e-06)
(0 -0 5.548635006e-07)
(0 -0 -2.702873293e-08)
(0 -0 -6.165817562e-07)
(0 -0 -1.209031269e-06)
(0 -0 -1.79964478e-06)
(0 -0 -2.3836967e-06)
(0 -0 -2.956506166e-06)
(0 -0 -3.513529718e-06)
(0 -0 -4.050455933e-06)
(0 -0 -4.563251974e-06)
(0 -0 -5.048148755e-06)
(0 -0 -5.50158857e-06)
(0 -0 -5.920175978e-06)
(0 -0 -6.300664967e-06)
(0 -0 -6.639994423e-06)
(0 -0 -6.935363866e-06)
(0 -0 -7.184329189e-06)
(0 -0 -7.384894714e-06)
(0 -0 -7.535582534e-06)
(0 -0 -7.635468999e-06)
(0 -0 -7.684188228e-06)
(0 -0 -7.681911569e-06)
(0 -0 -7.629316477e-06)
(0 -0 -7.527556275e-06)
(0 -0 -7.378234993e-06)
(0 -0 -7.183383545e-06)
(0 -0 -6.945429597e-06)
(0 -0 -6.66715598e-06)
(0 -0 -6.351648217e-06)
(0 -0 -6.002236609e-06)
(0 -0 -5.622438249e-06)
(0 -0 -5.215901434e-06)
(0 -0 -4.786353417e-06)
(0 -0 -4.337553185e-06)
(0 -0 -3.873251781e-06)
(0 -0 4.540187902e-06)
(0 -0 4.522981365e-06)
(0 -0 4.459961479e-06)
(0 -0 4.343874715e-06)
(0 -0 4.171709756e-06)
(0 -0 3.943221957e-06)
(0 -0 3.660821805e-06)
(0 -0 3.327935134e-06)
(0 -0 2.947757647e-06)
(0 -0 2.523231637e-06)
(0 -0 2.057570318e-06)
(0 -0 1.554624005e-06)
(0 -0 1.01887565e-06)
(0 -0 4.551918625e-07)
(0 -0 -1.314311905e-07)
(0 -0 -7.360489572e-07)
(0 -0 -1.353774618e-06)
(0 -0 -1.979703225e-06)
(0 -0 -2.608817564e-06)
(0 -0 -3.235947004e-06)
(0 -0 -3.855825165e-06)
(0 -0 -4.463231678e-06)
(0 -0 -5.053153902e-06)
(0 -0 -5.620900338e-06)
(0 -0 -6.162130162e-06)
(0 -0 -6.672810851e-06)
(0 -0 -7.149144929e-06)
(0 -0 -7.587511016e-06)
(0 -0 -7.984449777e-06)
(0 -0 -8.336703016e-06)
(0 -0 -8.64129581e-06)
(0 -0 -8.895640386e-06)
(0 -0 -9.097636682e-06)
(0 -0 -9.245748213e-06)
(0 -0 -9.339041255e-06)
(0 -0 -9.377187512e-06)
(0 -0 -9.360441234e-06)
(0 -0 -9.289606527e-06)
(0 -0 -9.166006876e-06)
(0 -0 -8.991459601e-06)
(0 -0 -8.768249486e-06)
(0 -0 -8.499093963e-06)
(0 -0 -8.187096308e-06)
(0 -0 -7.835688836e-06)
(0 -0 -7.44857048e-06)
(0 -0 -7.029642306e-06)
(0 -0 -6.582943733e-06)
(0 -0 -6.112592768e-06)
(0 -0 -5.622733947e-06)
(0 -0 -5.117495501e-06)
(0 -0 3.767381205e-06)
(0 -0 3.750084376e-06)
(0 -0 3.684173719e-06)
(0 -0 3.561862699e-06)
(0 -0 3.379979968e-06)
(0 -0 3.13828828e-06)
(0 -0 2.839283896e-06)
(0 -0 2.486481536e-06)
(0 -0 2.083207196e-06)
(0 -0 1.632699122e-06)
(0 -0 1.138682494e-06)
(0 -0 6.056005915e-07)
(0 -0 3.83675973e-08)
(0 -0 -5.579943086e-07)
(0 -0 -1.178539361e-06)
(0 -0 -1.818323808e-06)
(0 -0 -2.472253477e-06)
(0 -0 -3.134979223e-06)
(0 -0 -3.800900321e-06)
(0 -0 -4.464258447e-06)
(0 -0 -5.119283662e-06)
(0 -0 -5.760353918e-06)
(0 -0 -6.38212944e-06)
(0 -0 -6.979629546e-06)
(0 -0 -7.548238199e-06)
(0 -0 -8.083653208e-06)
(0 -0 -8.581814505e-06)
(0 -0 -9.038850123e-06)
(0 -0 -9.451066615e-06)
(0 -0 -9.81499237e-06)
(0 -0 -1.012746525e-05)
(0 -0 -1.038574368e-05)
(0 -0 -1.058761479e-05)
(0 -0 -1.073147589e-05)
(0 -0 -1.081637563e-05)
(0 -0 -1.084201625e-05)
(0 -0 -1.080872987e-05)
(0 -0 -1.071744584e-05)
(0 -0 -1.056966037e-05)
(0 -0 -1.036740966e-05)
(0 -0 -1.011324025e-05)
(0 -0 -9.81016979e-06)
(0 -0 -9.46163662e-06)
(0 -0 -9.071439729e-06)
(0 -0 -8.64367111e-06)
(0 -0 -8.182642223e-06)
(0 -0 -7.692809927e-06)
(0 -0 -7.178708943e-06)
(0 -0 -6.644894437e-06)
(0 -0 -6.095892794e-06)
(0 -0 3.179404625e-06)
(0 -0 3.162219329e-06)
(0 -0 3.093655138e-06)
(0 -0 2.965383827e-06)
(0 -0 2.774058552e-06)
(0 -0 2.519398189e-06)
(0 -0 2.203942294e-06)
(0 -0 1.831358169e-06)
(0 -0 1.405300251e-06)
(0 -0 9.294997933e-07)
(0 -0 4.081730554e-07)
(0 -0 -1.539620719e-07)
(0 -0 -7.519653988e-07)
(0 -0 -1.380870132e-06)
(0 -0 -2.035626306e-06)
(0 -0 -2.710932433e-06)
(0 -0 -3.401140248e-06)
(0 -0 -4.100302114e-06)
(0 -0 -4.802292805e-06)
(0 -0 -5.500934049e-06)
(0 -0 -6.19010856e-06)
(0 -0 -6.863875616e-06)
(0 -0 -7.516581036e-06)
(0 -0 -8.142930187e-06)
(0 -0 -8.737999697e-06)
(0 -0 -9.297192534e-06)
(0 -0 -9.816168919e-06)
(0 -0 -1.029079316e-05)
(0 -0 -1.071712523e-05)
(0 -0 -1.109146744e-05)
(0 -0 -1.141045815e-05)
(0 -0 -1.167119078e-05)
(0 -0 -1.187132932e-05)
(0 -0 -1.200919461e-05)
(0 -0 -1.208380737e-05)
(0 -0 -1.209489073e-05)
(0 -0 -1.204284732e-05)
(0 -0 -1.192872751e-05)
(0 -0 -1.175419906e-05)
(0 -0 -1.152151836e-05)
(0 -0 -1.123349824e-05)
(0 -0 -1.089346703e-05)
(0 -0 -1.050521636e-05)
(0 -0 -1.007293715e-05)
(0 -0 -9.601143819e-06)
(0 -0 -9.094589594e-06)
(0 -0 -8.558182972e-06)
(0 -0 -7.996910439e-06)
(0 -0 -7.415768387e-06)
(0 -0 -6.819718786e-06)
(0 -0 2.762572616e-06)
(0 -0 2.745666811e-06)
(0 -0 2.674655845e-06)
(0 -0 2.54065242e-06)
(0 -0 2.340100889e-06)
(0 -0 2.072649543e-06)
(0 -0 1.740936073e-06)
(0 -0 1.348933259e-06)
(0 -0 9.007472782e-07)
(0 -0 4.00522866e-07)
(0 -0 -1.47331604e-07)
(0 -0 -7.381126056e-07)
(0 -0 -1.366896655e-06)
(0 -0 -2.028528787e-06)
(0 -0 -2.71752894e-06)
(0 -0 -3.428027758e-06)
(0 -0 -4.153827676e-06)
(0 -0 -4.888531563e-06)
(0 -0 -5.625651724e-06)
(0 -0 -6.358680839e-06)
(0 -0 -7.081166466e-06)
(0 -0 -7.786818819e-06)
(0 -0 -8.469632417e-06)
(0 -0 -9.123972725e-06)
(0 -0 -9.744594813e-06)
(0 -0 -1.032659893e-05)
(0 -0 -1.086535896e-05)
(0 -0 -1.135646708e-05)
(0 -0 -1.179572599e-05)
(0 -0 -1.217919973e-05)
(0 -0 -1.250331448e-05)
(0 -0 -1.276498577e-05)
(0 -0 -1.296174098e-05)
(0 -0 -1.30918102e-05)
(0 -0 -1.315417168e-05)
(0 -0 -1.314855606e-05)
(0 -0 -1.307542501e-05)
(0 -0 -1.293594066e-05)
(0 -0 -1.273193476e-05)
(0 -0 -1.246587862e-05)
(0 -0 -1.214085094e-05)
(0 -0 -1.176049864e-05)
(0 -0 -1.132898439e-05)
(0 -0 -1.085091793e-05)
(0 -0 -1.0331269e-05)
(0 -0 -9.775275484e-06)
(0 -0 -9.188345352e-06)
(0 -0 -8.57595082e-06)
(0 -0 -7.943559784e-06)
(0 -0 -7.2966552e-06)
(0 -0 2.5053196e-06)
(0 -0 2.488825149e-06)
(0 -0 2.415545546e-06)
(0 -0 2.276008237e-06)
(0 -0 2.066434525e-06)
(0 -0 1.786430708e-06)
(0 -0 1.438815997e-06)
(0 -0 1.02793228e-06)
(0 -0 5.582717918e-07)
(0 -0 3.419570604e-08)
(0 -0 -5.398611415e-07)
(0 -0 -1.159185704e-06)
(0 -0 -1.818666467e-06)
(0 -0 -2.512742819e-06)
(0 -0 -3.235408396e-06)
(0 -0 -3.980291988e-06)
(0 -0 -4.740786041e-06)
(0 -0 -5.510152623e-06)
(0 -0 -6.281576906e-06)
(0 -0 -7.048203716e-06)
(0 -0 -7.803210463e-06)
(0 -0 -8.539931673e-06)
(0 -0 -9.251997187e-06)
(0 -0 -9.933427371e-06)
(0 -0 -1.057865262e-05)
(0 -0 -1.11824661e-05)
(0 -0 -1.173994867e-05)
(0 -0 -1.224641147e-05)
(0 -0 -1.269738903e-05)
(0 -0 -1.308869467e-05)
(0 -0 -1.34165288e-05)
(0 -0 -1.367761407e-05)
(0 -0 -1.386932449e-05)
(0 -0 -1.398978095e-05)
(0 -0 -1.403790045e-05)
(0 -0 -1.401340327e-05)
(0 -0 -1.391679318e-05)
(0 -0 -1.374932715e-05)
(0 -0 -1.351298443e-05)
(0 -0 -1.321043808e-05)
(0 -0 -1.28450266e-05)
(0 -0 -1.242071813e-05)
(0 -0 -1.19420581e-05)
(0 -0 -1.141409621e-05)
(0 -0 -1.084229141e-05)
(0 -0 -1.023243658e-05)
(0 -0 -9.590491964e-06)
(0 -0 -8.922520981e-06)
(0 -0 -8.234667006e-06)
(0 -0 -7.53279123e-06)
(0 -0 2.397503388e-06)
(0 -0 2.381520068e-06)
(0 -0 2.306124646e-06)
(0 -0 2.161243777e-06)
(0 -0 1.942898144e-06)
(0 -0 1.650700459e-06)
(0 -0 1.287672636e-06)