/*--------------------------------*- C++ -*----------------------------------*\
| =========                 |                                                 |
| \\      /  F ield         | foam-extend: Open Source CFD                    |
|  \\    /   O peration     | Version:     4.1                                |
|   \\  /    A nd           | Web:         http://www.foam-extend.org         |
|    \\/     M anipulation  |                                                 |
\*---------------------------------------------------------------------------*/
FoamFile
{
    version     2.0;
    format      ascii;
    class       volScalarField;
    location    "130000";
    object      p;
}
// * * * * * * * * * * * * * * * * * * * * * * * * * * * * * * * * * * * * * //

dimensions      [0 2 -2 0 0 0 0];

internalField   nonuniform List<scalar> 
15920
(
2.126883631e-08
1.844446459e-08
1.62549401e-08
1.513942182e-08
1.434535541e-08
1.352680034e-08
1.273130809e-08
1.203684818e-08
1.144683324e-08
1.093964312e-08
1.050429956e-08
1.013735831e-08
9.833764852e-09
9.585429415e-09
9.383334355e-09
9.218867552e-09
9.084107725e-09
8.971902305e-09
8.876000824e-09
8.791141216e-09
8.713032404e-09
8.638267704e-09
8.564212559e-09
8.488886823e-09
8.410848419e-09
8.329087941e-09
8.242936369e-09
8.151985753e-09
8.05602388e-09
7.954982423e-09
7.84889652e-09
7.737873939e-09
7.622072283e-09
7.501682818e-09
7.37691958e-09
7.248012513e-09
7.11520347e-09
6.978744133e-09
6.838895236e-09
6.695926669e-09
6.550118227e-09
6.401760792e-09
6.251157713e-09
6.098626047e-09
5.944497401e-09
5.789118213e-09
5.632849449e-09
5.476065889e-09
5.319155218e-09
5.162516957e-09
1.596457797e-08
1.561496335e-08
1.504940541e-08
1.452448888e-08
1.401785013e-08
1.344847051e-08
1.28420065e-08
1.225398007e-08
1.171027182e-08
1.121710799e-08
1.077837675e-08
1.03975907e-08
1.007438727e-08
9.804111852e-09
9.579742173e-09
9.393681508e-09
9.238562251e-09
9.107550288e-09
8.994549935e-09
8.894339168e-09
8.802594757e-09
8.715832694e-09
8.63131219e-09
8.546933355e-09
8.461110763e-09
8.372684947e-09
8.280843733e-09
8.185046825e-09
8.084961822e-09
7.980412985e-09
7.871340909e-09
7.757771333e-09
7.639791705e-09
7.517534175e-09
7.391163743e-09
7.260870295e-09
7.126863407e-09
6.989369063e-09
6.848627726e-09
6.704893467e-09
6.55843396e-09
6.409531063e-09
6.258481596e-09
6.105597932e-09
5.951208211e-09
5.795656196e-09
5.63930081e-09
5.482515438e-09
5.325686685e-09
5.169212783e-09
1.543716434e-08
1.527511647e-08
1.483551905e-08
1.427956698e-08
1.374421774e-08
1.323245238e-08
1.272479285e-08
1.223279575e-08
1.17737155e-08
1.135402288e-08
1.097413934e-08
1.063411866e-08
1.03335394e-08
1.007025778e-08
9.84077816e-09
9.641034375e-09
9.466813252e-09
9.313897449e-09
9.178192161e-09
9.055875547e-09
8.94351205e-09
8.838104767e-09
8.73710227e-09
8.638382604e-09
8.540252008e-09
8.441379882e-09
8.340733222e-09
8.237531202e-09
8.131205858e-09
8.021364168e-09
7.907753735e-09
7.790233941e-09
7.668752554e-09
7.543327143e-09
7.414030565e-09
7.280979926e-09
7.144328419e-09
7.004259461e-09
6.860982704e-09
6.7147315e-09
6.565761429e-09
6.414349466e-09
6.260793417e-09
6.105411335e-09
5.94854078e-09
5.790537778e-09
5.631775199e-09
5.472642037e-09
5.313541789e-09
5.154890112e-09
1.444173737e-08
1.429982953e-08
1.401810364e-08
1.366149364e-08
1.32901972e-08
1.291583931e-08
1.253222912e-08
1.214639388e-08
1.177290173e-08
1.142108166e-08
1.109423724e-08
1.079374201e-08
1.052045429e-08
1.02741514e-08
1.005336311e-08
9.855782362e-09
9.678673885e-09
9.519108142e-09
9.374109789e-09
9.240794147e-09
9.116479942e-09
8.998758369e-09
8.885523004e-09
8.77497572e-09
8.66561739e-09
8.556216618e-09
8.445776476e-09
8.333507496e-09
8.218801494e-09
8.101204369e-09
7.980390574e-09
7.85614119e-09
7.728325724e-09
7.59688722e-09
7.461830247e-09
7.323211474e-09
7.181132536e-09
7.035734751e-09
6.887195256e-09
6.735724199e-09
6.581562682e-09
6.424981098e-09
6.266277724e-09
6.105777448e-09
5.943830465e-09
5.780810923e-09
5.617115714e-09
5.453161328e-09
5.289380572e-09
5.126219974e-09
1.380049226e-08
1.373053927e-08
1.356121281e-08
1.331383095e-08
1.302643713e-08
1.272052985e-08
1.240289277e-08
1.20801551e-08
1.176197934e-08
1.145630032e-08
1.116736191e-08
1.089724772e-08
1.064715135e-08
1.041741842e-08
1.020739848e-08
1.001565583e-08
9.840305061e-09
9.679243479e-09
9.530283253e-09
9.391250482e-09
9.260069907e-09
9.134824939e-09
9.013790449e-09
8.89544545e-09
8.778473366e-09
8.661753574e-09
8.544347165e-09
8.425480738e-09
8.304529295e-09
8.180998746e-09
8.054509348e-09
7.92478072e-09
7.791618841e-09
7.654904916e-09
7.514585996e-09
7.370667568e-09
7.223207905e-09
7.072313713e-09
6.918136799e-09
6.760871338e-09
6.600751597e-09
6.438049812e-09
6.273074252e-09
6.106167573e-09
5.937705254e-09
5.768093721e-09
5.597767864e-09
5.427187508e-09
5.256831307e-09
5.087195069e-09
1.330969977e-08
1.326050275e-08
1.313737251e-08
1.295036705e-08
1.272569656e-08
1.24813919e-08
1.222486234e-08
1.196100731e-08
1.169619846e-08
1.143667164e-08
1.118669843e-08
1.094875328e-08
1.072430458e-08
1.051410452e-08
1.031817191e-08
1.013587803e-08
9.966146383e-09
9.807629679e-09
9.658824628e-09
9.518155998e-09
9.384050034e-09
9.254994101e-09
9.129577317e-09
9.00651445e-09
8.884657999e-09
8.763001536e-09
8.640676253e-09
8.516943305e-09
8.391184637e-09
8.262893547e-09
8.131664774e-09
7.997184247e-09
7.859219802e-09
7.717612967e-09
7.572272076e-09
7.423167161e-09
7.270326102e-09
7.113830849e-09
6.953814312e-09
6.790458855e-09
6.623994631e-09
6.454697509e-09
6.282887308e-09
6.108926113e-09
5.933216294e-09
5.756198021e-09
5.578346325e-09
5.400170617e-09
5.222195521e-09
5.044973898e-09
1.292143693e-08
1.288452167e-08
1.279326019e-08
1.265293971e-08
1.247971946e-08
1.228581944e-08
1.20775283e-08
1.185940074e-08
1.163661989e-08
1.141432226e-08
1.119643726e-08
1.098554406e-08
1.078330319e-08
1.059073573e-08
1.040827352e-08
1.023580317e-08
1.007278427e-08
9.918382386e-09
9.771571811e-09
9.631212184e-09
9.496112706e-09
9.365086122e-09
9.236989098e-09
9.110749256e-09
8.985381673e-09
8.859997521e-09
8.733807109e-09
8.606119366e-09
8.476339083e-09
8.343962781e-09
8.208573332e-09
8.069834495e-09
7.927485817e-09
7.781335652e-09
7.631257245e-09
7.47718718e-09
7.31912468e-09
7.15712825e-09
6.991311685e-09
6.821844149e-09
6.648949851e-09
6.472906511e-09
6.294043953e-09
6.112742612e-09
5.929431243e-09
5.744583514e-09
5.558711697e-09
5.372402853e-09
5.186205632e-09
5.000740303e-09
1.261134365e-08
1.258326064e-08
1.251361755e-08
1.240505187e-08
1.226802012e-08
1.211107477e-08
1.193942929e-08
1.175718778e-08
1.156859749e-08
1.137773952e-08
1.118791373e-08
1.100149691e-08
1.082014134e-08
1.064495293e-08
1.047655236e-08
1.031511294e-08
1.016043627e-08
1.00120466e-08
9.869272624e-09
9.731311349e-09
9.597280874e-09
9.466265592e-09
9.337352311e-09
9.209656702e-09
9.08234163e-09
8.954629545e-09
8.825810028e-09
8.695243911e-09
8.562365658e-09
8.426685796e-09
8.287783017e-09
8.145305027e-09
7.99897341e-09
7.848573045e-09
7.693951975e-09
7.535021359e-09
7.371753881e-09
7.204184753e-09
7.032413721e-09
6.856603111e-09
6.676976539e-09
6.493818825e-09
6.307475305e-09
6.11835022e-09
5.92690449e-09
5.733653069e-09
5.539163437e-09
5.34400968e-09
5.148875642e-09
4.954432868e-09
1.236085359e-08
1.233874387e-08
1.228381415e-08
1.219753101e-08
1.208722401e-08
1.195900206e-08
1.181681996e-08
1.166396684e-08
1.150381316e-08
1.133959566e-08
1.117404241e-08
1.10092571e-08
1.084679875e-08
1.068777821e-08
1.053290661e-08
1.038252856e-08
1.023667287e-08
1.00951167e-08
9.95744677e-09
9.823110696e-09
9.69146069e-09
9.561791404e-09
9.433371756e-09
9.305470174e-09
9.177372849e-09
9.048397803e-09
8.917905888e-09
8.785307678e-09
8.6500625e-09
8.511701841e-09
8.369807576e-09
8.224020223e-09
8.074037277e-09
7.91962144e-09
7.760598708e-09
7.596857659e-09
7.428350625e-09
7.255095879e-09
7.077179531e-09
6.894755914e-09
6.708048131e-09
6.517348766e-09
6.323019684e-09
6.125490759e-09
5.925257644e-09
5.722878734e-09
5.518971125e-09
5.314202249e-09
5.109296989e-09
4.905011933e-09
1.21571834e-08
1.213937221e-08
1.20951256e-08
1.202531839e-08
1.193529315e-08
1.182943657e-08
1.171062821e-08
1.158141126e-08
1.144447329e-08
1.130242445e-08
1.115751674e-08
1.101155934e-08
1.086595642e-08
1.072175749e-08
1.057968693e-08
1.044016831e-08
1.030335929e-08
1.016919575e-08
1.003743675e-08
9.907704719e-09
9.77952101e-09
9.652337463e-09
9.525562013e-09
9.39858197e-09
9.270783737e-09
9.14156415e-09
9.010341145e-09
8.87656896e-09
8.739743524e-09
8.599389549e-09
8.455088396e-09
8.306472972e-09
8.153227787e-09
7.995094717e-09
7.831876057e-09
7.663436619e-09
7.489706564e-09
7.310684811e-09
7.126442397e-09
6.937125427e-09
6.742957207e-09
6.544239556e-09
6.341353334e-09
6.134758032e-09
5.92499016e-09
5.712660211e-09
5.498448106e-09
5.283097202e-09
5.067408485e-09
4.85222836e-09
1.199120577e-08
1.197661518e-08
1.194036485e-08
1.188297745e-08
1.180847088e-08
1.172006937e-08
1.161987356e-08
1.150982914e-08
1.139206514e-08
1.12686764e-08
1.114149758e-08
1.101204413e-08
1.088153547e-08
1.075091911e-08
1.062088298e-08
1.049186964e-08
1.036409997e-08
1.023760368e-08
1.011225181e-08
9.987787359e-09
9.863850751e-09
9.740008039e-09
9.615773914e-09
9.490622923e-09
9.36401543e-09
9.235412401e-09
9.104280128e-09
8.970096988e-09
8.832369463e-09
8.690633633e-09
8.544465223e-09
8.393482827e-09
8.237351372e-09
8.075787854e-09
7.908566913e-09
7.73552544e-09
7.556567273e-09
7.371668461e-09
7.18088269e-09
6.984346139e-09
6.782281136e-09
6.5749986e-09
6.3628996e-09
6.146476183e-09
5.926310972e-09
5.703074506e-09
5.477519795e-09
5.250474733e-09
5.022833244e-09
4.795544216e-09
1.185609254e-08
1.184396962e-08
1.181384608e-08
1.176603189e-08
1.170363584e-08
1.16290846e-08
1.154391499e-08
1.144959587e-08
1.134779409e-08
1.124017914e-08
1.112823547e-08
1.101321644e-08
1.089615915e-08
1.077789407e-08
1.065904607e-08
1.054004033e-08
1.042111828e-08
1.030235799e-08
1.018369525e-08
1.00649506e-08
9.945847347e-09
9.826022832e-09
9.70506524e-09
9.582522182e-09
9.457901323e-09
9.33069596e-09
9.200402656e-09
9.066522316e-09
8.92856751e-09
8.786070698e-09
8.638592362e-09
8.485728274e-09
8.327115724e-09
8.162440021e-09
7.991441351e-09
7.81392163e-09
7.629751664e-09
7.438878634e-09
7.241333425e-09
7.037237282e-09
6.826807519e-09
6.610362085e-09
6.38832293e-09
6.161218055e-09
5.929681783e-09
5.694452331e-09
5.45636597e-09
5.216348179e-09
4.975402873e-09
4.734599811e-09
1.174661161e-08
1.173642293e-08
1.171110353e-08
1.167083093e-08
1.161806283e-08
1.155465963e-08
1.1481749e-08
1.140043278e-08
1.131200995e-08
1.121780782e-08
1.111902265e-08
1.101668095e-08
1.091164918e-08
1.080463645e-08
1.069618938e-08
1.058669197e-08
1.047637532e-08
1.036533558e-08
1.025354333e-08
1.014085358e-08
1.002704394e-08
9.911810068e-09
9.794768475e-09
9.675498419e-09
9.553552154e-09
9.42845376e-09
9.29971076e-09
9.166825532e-09
9.029303058e-09
8.886659323e-09
8.738430343e-09
8.58418027e-09
8.423508815e-09
8.256059197e-09
8.081526816e-09
7.899668504e-09
7.710312245e-09
7.513366959e-09
7.308831874e-09
7.096805358e-09
6.877493271e-09
6.651216574e-09
6.418417287e-09
6.179661902e-09
5.935641886e-09
5.687171219e-09
5.43518073e-09
5.180709107e-09
4.924890694e-09
4.668939904e-09
1.165866528e-08
1.165002472e-08
1.162855063e-08
1.159433525e-08
1.154935462e-08
1.149505821e-08
1.143227774e-08
1.136183806e-08
1.128474943e-08
1.120206407e-08
1.111474035e-08
1.102361008e-08
1.092938553e-08
1.083265871e-08
1.073389357e-08
1.063342185e-08
1.053144547e-08
1.042805101e-08
1.032323024e-08
1.021685959e-08
1.010871437e-08
9.998514078e-09
9.885919313e-09
9.770533438e-09
9.651918533e-09
9.529603799e-09
9.403094091e-09
9.271880424e-09
9.135448364e-09
8.993286041e-09
8.844892922e-09
8.689788627e-09
8.527521891e-09
8.357680325e-09
8.179901172e-09
7.993882857e-09
7.799397024e-09
7.596300727e-09
7.384548541e-09
7.164204531e-09
6.935453998e-09
6.69861443e-09
6.454144334e-09
6.202648605e-09
5.944880113e-09
5.681737989e-09
5.414262461e-09
5.143625219e-09
4.871114753e-09
4.598117142e-09
1.158897675e-08
1.158159938e-08
1.156326303e-08
1.153400427e-08
1.14954334e-08
1.14486956e-08
1.139440691e-08
1.133318326e-08
1.12658089e-08
1.119311547e-08
1.111586703e-08
1.103473186e-08
1.095028718e-08
1.086301687e-08
1.077330239e-08
1.068141624e-08
1.058753713e-08
1.049172673e-08
1.039394168e-08
1.029406511e-08
1.019189822e-08
1.008716736e-08
9.979537016e-09
9.86861359e-09
9.753955617e-09
9.635083676e-09
9.511487502e-09
9.382634142e-09
9.247976266e-09
9.106960163e-09
8.959034411e-09
8.80365933e-09
8.640317293e-09
8.468524317e-09
8.287842955e-09
8.097896036e-09
7.898380965e-09
7.689084713e-09
7.469899626e-09
7.240839708e-09
7.002056531e-09
6.753853766e-09
6.496699239e-09
6.231233415e-09
5.958273737e-09
5.678814827e-09
5.39402403e-09
5.10523046e-09
4.813906534e-09
4.521643654e-09
1.153487414e-08
1.152854712e-08
1.151281959e-08
1.148769169e-08
1.145448903e-08
1.14141268e-08
1.136706286e-08
1.131375622e-08
1.125481568e-08
1.119089663e-08
1.112260346e-08
1.105046783e-08
1.09749522e-08
1.089644479e-08
1.081525152e-08
1.073159195e-08
1.064558571e-08
1.055726803e-08
1.046658539e-08
1.037340971e-08
1.027753668e-08
1.017868566e-08
1.00765114e-08
9.970610994e-09
9.86052947e-09
9.745766742e-09
9.625784168e-09
9.500011652e-09
9.367855236e-09
9.228704826e-09
9.08194271e-09
8.926953472e-09
8.763135566e-09
8.589914617e-09
8.406758197e-09
8.213191677e-09
8.0088152e-09
7.793322276e-09
7.566520198e-09
7.328351474e-09
7.078914653e-09
6.818483269e-09
6.5475224e-09
6.266702271e-09
5.976907322e-09
5.679239058e-09
5.375011712e-09
5.06573976e-09
4.753116255e-09
4.438982818e-09
1.149413771e-08
1.148870073e-08
1.14751825e-08
1.145355938e-08
1.142493131e-08
1.13900374e-08
1.134921885e-08
1.130281478e-08
1.125129681e-08
1.119518095e-08
1.113494613e-08
1.1071008e-08
1.100372952e-08
1.093341825e-08
1.086031008e-08
1.078456428e-08
1.07062605e-08
1.062540264e-08
1.054191707e-08
1.045565245e-08
1.036638484e-08
1.027381981e-08
1.017759679e-08
1.007729352e-08
9.972430138e-09
9.862474443e-09
9.746847671e-09
9.624930416e-09
9.496068914e-09
9.359581963e-09
9.214769276e-09
9.060921897e-09
8.897334757e-09
8.72332117e-09
8.538229113e-09
8.341459421e-09
8.132486274e-09
7.910880313e-09
7.676334228e-09
7.428689837e-09
7.167965045e-09
6.894379296e-09
6.608376952e-09
6.31064795e-09
6.002143352e-09
5.684082243e-09
5.357948127e-09
5.025474976e-09
4.688622555e-09
4.349540152e-09
1.146488853e-08
1.146022133e-08
1.14486094e-08
1.143001493e-08
1.140535427e-08
1.137522636e-08
1.133988667e-08
1.129958806e-08
1.125469996e-08
1.120561394e-08
1.11527152e-08
1.109633338e-08
1.103674477e-08
1.097417963e-08
1.090881354e-08
1.084075679e-08
1.07700496e-08
1.069666115e-08
1.062048926e-08
1.054135953e-08
1.045902704e-08
1.037317698e-08
1.028342577e-08
1.018932351e-08
1.009035702e-08
9.985953509e-09
9.875484624e-09
9.758270625e-09
9.633585124e-09
9.500661136e-09
9.358699197e-09
9.206877922e-09
9.044366872e-09
8.870341606e-09
8.684001304e-09
8.484589726e-09
8.271419992e-09
8.043902909e-09
7.801578111e-09
7.544147419e-09
7.271509789e-09
6.983796552e-09
6.681405016e-09
6.36502826e-09
6.0356784e-09
5.694699727e-09
5.343769032e-09
4.984882293e-09
4.620326358e-09
4.252633074e-09
1.144550448e-08
1.144152027e-08
1.1431578e-08
1.14156354e-08
1.139446896e-08
1.136856399e-08
1.13381077e-08
1.130329337e-08
1.126440416e-08
1.122176338e-08
1.117565115e-08
1.112631727e-08
1.107397738e-08
1.101880477e-08
1.096092313e-08
1.090039796e-08
1.083723164e-08
1.077136145e-08
1.070265808e-08
1.063092337e-08
1.055588904e-08
1.047721568e-08
1.039449234e-08
1.030723709e-08
1.021489836e-08
1.011685657e-08
1.001242594e-08
9.900856621e-09
9.781337955e-09
9.653003422e-09
9.514937988e-09
9.366187939e-09
9.205773238e-09
9.032702764e-09
8.84599329e-09
8.644693324e-09
8.427912232e-09
8.194854083e-09
7.944855296e-09
7.677425941e-09
7.392294955e-09
7.089458189e-09
6.769225889e-09
6.432265388e-09
6.07963569e-09
5.712810731e-09
5.333687436e-09
4.944575216e-09
4.54816356e-09
4.147463941e-09
1.143455645e-08
1.143117599e-08
1.142271144e-08
1.140914085e-08
1.139110039e-08
1.136900733e-08
1.134299556e-08
1.131319768e-08
1.12798282e-08
1.12431401e-08
1.120335749e-08
1.116067275e-08
1.111524744e-08
1.106720563e-08
1.101662681e-08
1.096353868e-08
1.090791173e-08
1.084965584e-08
1.078861714e-08
1.072457459e-08
1.065723681e-08
1.058623951e-08
1.051114349e-08
1.043143335e-08
1.034651666e-08
1.025572308e-08
1.01583037e-08
1.005343107e-08
9.940200624e-09
9.817634097e-09
9.684685085e-09
9.540246996e-09
9.38316407e-09
9.212246511e-09
9.026290805e-09
8.82410597e-09
8.604546182e-09
8.366549898e-09
8.109185476e-09
7.831703288e-09
7.533594245e-09
7.21465332e-09
6.875044293e-09
6.515360778e-09
6.136679457e-09
5.740601106e-09
5.329272068e-09
4.905378373e-09
4.472107921e-09
4.033078201e-09
1.143083878e-08
1.142796185e-08
1.142084948e-08
1.140943827e-08
1.139426345e-08
1.137564479e-08
1.135369588e-08
1.132851695e-08
1.130027598e-08
1.126916931e-08
1.12353733e-08
1.119903406e-08
1.116026988e-08
1.111916663e-08
1.107576996e-08
1.103007809e-08
1.098203616e-08
1.09315319e-08
1.08783913e-08
1.082237388e-08
1.07631681e-08
1.070038729e-08
1.063356605e-08
1.056215686e-08
1.048552666e-08
1.040295328e-08
1.031362209e-08
1.021662359e-08
1.011095257e-08
9.995508915e-09
9.869100245e-09
9.730446908e-09
9.578190725e-09
9.410909236e-09
9.227136485e-09
9.025390696e-09
8.804209383e-09
8.56219339e-09
8.298061459e-09
8.010715645e-09
7.699316432e-09
7.363365539e-09
7.002793349e-09
6.618046268e-09
6.210168344e-09
5.780869686e-09
5.332570093e-09
4.868404627e-09
4.392183424e-09
3.90830291e-09
1.143315653e-08
1.143076937e-08
1.142488692e-08
1.141546387e-08
1.140291864e-08
1.138751497e-08
1.136934237e-08
1.134848184e-08
1.132506647e-08
1.129925018e-08
1.127117115e-08
1.124094156e-08
1.120864842e-08
1.117434943e-08
1.113806546e-08
1.10997735e-08
1.105940085e-08
1.101681994e-08
1.097184278e-08
1.092421507e-08
1.087361053e-08
1.081962539e-08
1.0761773e-08
1.069947808e-08
1.063207045e-08
1.055877854e-08
1.047872323e-08
1.039091262e-08
1.029423782e-08
1.018746984e-08
1.006925812e-08
9.938131608e-09
9.792504226e-09
9.630686435e-09
9.450904216e-09
9.251326315e-09
9.030100971e-09
8.785404665e-09
8.515505715e-09
8.218843825e-09
7.894124342e-09
7.540425551e-09
7.15731737e-09
6.744987004e-09
6.30436222e-09
5.837219819e-09
5.346264333e-09
4.835159143e-09
4.308494291e-09
3.771680399e-09
1.14404632e-08
1.143855287e-08
1.143382113e-08
1.142622977e-08
1.141612637e-08
1.140372866e-08
1.138910748e-08
1.137232702e-08
1.135349499e-08
1.133273595e-08
1.13101611e-08
1.128585906e-08
1.125989546e-08
1.123230921e-08
1.120310554e-08
1.117224908e-08
1.113965772e-08
1.110519645e-08
1.106867095e-08
1.102982084e-08
1.098831295e-08
1.094373442e-08
1.089558527e-08
1.084327007e-08
1.07860887e-08
1.072322692e-08
1.065374717e-08
1.057657965e-08
1.049051356e-08
1.039418875e-08
1.028608873e-08
1.016453682e-08
1.002769665e-08
9.87357844e-09
9.700052929e-09
9.504875126e-09
9.285720885e-09
9.040239275e-09
8.766123991e-09
8.461206299e-09
8.123570532e-09
7.751692287e-09
7.344598961e-09
6.90204787e-09
6.424709136e-09
5.914335781e-09
5.373901848e-09
4.807683758e-09
4.221253896e-09
3.621358707e-09
1.145179246e-08
1.145032013e-08
1.144666516e-08
1.144079921e-08
1.143299754e-08
1.142343708e-08
1.141217974e-08
1.139928207e-08
1.138483546e-08
1.136894448e-08
1.135170241e-08
1.133318321e-08
1.131344037e-08
1.129250326e-08
1.12703707e-08
1.124700408e-08
1.122232074e-08
1.119618721e-08
1.116841206e-08
1.113873853e-08
1.110683679e-08
1.107229554e-08
1.103461236e-08
1.099318277e-08
1.094728828e-08
1.089608386e-08
1.083858508e-08
1.077365454e-08
1.069998749e-08
1.061609711e-08
1.052030074e-08
1.041070892e-08
1.028521831e-08
1.014150954e-08
9.977052298e-09
9.78912157e-09
9.574829981e-09
9.331180017e-09
9.055139846e-09
8.743747484e-09
8.394248805e-09
8.00427304e-09
7.572046212e-09
7.096637749e-09
6.578227345e-09
6.018371349e-09
5.420241867e-09
4.788799995e-09
4.130849683e-09
3.454916473e-09
1.14662304e-08
1.146516914e-08
1.146253133e-08
1.145829697e-08
1.145267503e-08
1.144580875e-08
1.143775758e-08
1.142857672e-08
1.141834803e-08
1.140716404e-08
1.139510846e-08
1.138224907e-08
1.13686359e-08
1.135429767e-08
1.133923582e-08
1.132341762e-08
1.130676925e-08
1.128916864e-08
1.127043791e-08
1.125033544e-08
1.122854711e-08
1.120467631e-08
1.117823215e-08
1.114861622e-08
1.111510804e-08
1.107684928e-08
1.103282655e-08
1.098185221e-08
1.092254356e-08
1.085330089e-08
1.07722855e-08
1.067739882e-08
1.056626387e-08
1.043621068e-08
1.028426844e-08
1.010716895e-08
9.901367737e-09
9.663088239e-09
9.388395188e-09
9.073305405e-09
8.713946839e-09
8.306774291e-09
7.84884508e-09
7.338153757e-09
6.7740179e-09
6.157492428e-09
5.491772107e-09
4.782521581e-09
4.038051866e-09
3.2692504e-09
1.148291532e-08
1.148224289e-08
1.148056919e-08
1.147788352e-08
1.14743346e-08
1.147003705e-08
1.146505243e-08
1.145944e-08
1.145327848e-08
1.144665527e-08
1.143965187e-08
1.143233747e-08
1.142476666e-08
1.141697598e-08
1.140897821e-08
1.140075566e-08
1.139225316e-08
1.138337073e-08
1.137395587e-08
1.136379514e-08
1.135260433e-08
1.134001704e-08
1.132557108e-08
1.130869337e-08
1.128868285e-08
1.126469132e-08
1.123570134e-08
1.120050095e-08
1.115765576e-08
1.110547892e-08
1.104199921e-08
1.096492734e-08
1.087162184e-08
1.075905694e-08
1.062379611e-08
1.046197571e-08
1.02693049e-08
1.004108977e-08
9.772292331e-09
9.457637479e-09
9.091784194e-09
8.669576341e-09
8.186385173e-09
7.63855397e-09
7.0239487e-09
6.342595613e-09
5.597350845e-09
4.794506131e-09
3.944196769e-09
3.060450386e-09
1.150103053e-08
1.150072701e-08
1.149996883e-08
1.149875549e-08
1.149718077e-08
1.149533517e-08
1.149328629e-08
1.149110189e-08
1.148886285e-08
1.148665742e-08
1.148457131e-08
1.148268206e-08
1.148105633e-08
1.147974634e-08
1.147878462e-08
1.147817757e-08
1.147789865e-08
1.147788122e-08
1.147801081e-08
1.14781162e-08
1.147795886e-08
1.147722025e-08
1.147548722e-08
1.147223523e-08
1.146680904e-08
1.145839993e-08
1.144601893e-08
1.14284655e-08
1.140429223e-08
1.137176554e-08
1.132882194e-08
1.127301918e-08
1.120148288e-08
1.11108514e-08
1.09972231e-08
1.085610989e-08
1.068240296e-08
1.047036085e-08
1.021363549e-08
9.905354843e-09
9.538284302e-09
9.10509392e-09
8.598760956e-09
8.013137335e-09
7.3437058e-09
6.588527604e-09
5.749339857e-09
4.832689903e-09
3.850881245e-09
2.822351571e-09
1.151980065e-08
1.151984698e-08
1.151995742e-08
1.152014234e-08
1.152044547e-08
1.152093725e-08
1.152169439e-08
1.152279672e-08
1.152433176e-08
1.152639373e-08
1.152907823e-08
1.153247741e-08
1.153667668e-08
1.154175122e-08
1.154776118e-08
1.155474581e-08
1.156271714e-08
1.157165325e-08
1.15814906e-08
1.159211488e-08
1.160334994e-08
1.161494469e-08
1.162655789e-08
1.163774033e-08
1.164791338e-08
1.165634312e-08
1.166210933e-08
1.166406905e-08
1.1660814e-08
1.165062124e-08
1.163139593e-08
1.160060529e-08
1.155520337e-08
1.149154803e-08
1.140531295e-08
1.129139814e-08
1.114384486e-08
1.095576649e-08
1.071931356e-08
1.042569672e-08
1.006529868e-08
9.627919731e-09
9.103213816e-09
8.481374314e-09
7.754121518e-09
6.916029581e-09
5.966191355e-09
4.910180445e-09
3.762110482e-09
2.546228831e-09
1.153849004e-08
1.153886701e-08
1.153979865e-08
1.154130663e-08
1.154338925e-08
1.154610038e-08
1.154952828e-08
1.155376768e-08
1.155891634e-08
1.156507883e-08
1.157236554e-08
1.158088862e-08
1.159075814e-08
1.160207869e-08
1.161494522e-08
1.162943803e-08
1.164561724e-08
1.166351658e-08
1.168313607e-08
1.170443294e-08
1.172731069e-08
1.175160632e-08
1.177707513e-08
1.180337244e-08
1.183003072e-08
1.185643145e-08
1.188177104e-08
1.190502022e-08
1.192487532e-08
1.193969927e-08
1.19474505e-08
1.194559849e-08
1.193102483e-08
1.189990841e-08
1.184759414e-08
1.176844741e-08
1.165569914e-08
1.150129165e-08
1.129574265e-08
1.10280538e-08
1.068570496e-08
1.025480029e-08
9.720460896e-09
9.067584154e-09
8.282095383e-09
7.35281164e-09
6.273922546e-09
5.048032073e-09
3.689526401e-09
2.228146919e-09
1.155640332e-08
1.155709085e-08
1.155879391e-08
1.156154585e-08
1.156530382e-08
1.157010823e-08
1.157606064e-08
1.158327275e-08
1.159185547e-08
1.160192732e-08
1.161361752e-08
1.162706267e-08
1.164240241e-08
1.16597762e-08
1.167932006e-08
1.170116265e-08
1.17254207e-08
1.17521936e-08
1.178155656e-08
1.181355233e-08
1.184818109e-08
1.188538863e-08
1.192505186e-08
1.196696079e-08
1.201079555e-08
1.205609751e-08
1.210223368e-08
1.214835342e-08
1.219333509e-08
1.223571961e-08
1.227362736e-08
1.230465649e-08
1.232575976e-08
1.233309566e-08
1.232184891e-08
1.228601851e-08
1.221817473e-08
1.210918905e-08
1.194794755e-08
1.172107269e-08
1.141269863e-08
1.100437418e-08
1.0475215e-08
9.802508006e-09
8.963039708e-09
7.935634223e-09
6.705132613e-09
5.268152991e-09
3.639103609e-09
1.85548538e-09
1.157288738e-08
1.157386391e-08
1.157628496e-08
1.158019558e-08
1.158551602e-08
1.159227584e-08
1.160059113e-08
1.161059187e-08
1.162240436e-08
1.163616379e-08
1.165202133e-08
1.167014138e-08
1.169069691e-08
1.171386655e-08
1.173983246e-08
1.176877766e-08
1.180088261e-08
1.183632066e-08
1.187525235e-08
1.191781838e-08
1.196413125e-08
1.201426497e-08
1.206824202e-08
1.212601656e-08
1.218745277e-08
1.225229745e-08
1.232014526e-08
1.239039488e-08
1.246219351e-08
1.253436611e-08
1.260532496e-08
1.267295518e-08
1.273447047e-08
1.278623178e-08
1.282351975e-08
1.284025225e-08
1.282863977e-08
1.277877113e-08
1.267812723e-08
1.251103642e-08
1.225810936e-08
1.189572111e-08
1.139565312e-08
1.072510272e-08
9.847335301e-09
8.723954306e-09
7.319160322e-09
5.610972331e-09
3.604598837e-09
1.35702754e-09
1.158733438e-08
1.158857653e-08
1.15916574e-08
1.159663356e-08
1.16033926e-08
1.161195549e-08
1.162245336e-08
1.163503522e-08
1.164984416e-08
1.166703394e-08
1.168677973e-08
1.170927589e-08
1.173473115e-08
1.176336626e-08
1.179541308e-08
1.183111332e-08
1.187071624e-08
1.191447541e-08
1.196264451e-08
1.201547228e-08
1.207319639e-08
1.213603543e-08
1.220417835e-08
1.227777002e-08
1.235689253e-08
1.244154118e-08
1.253159362e-08
1.262676889e-08
1.272657351e-08
1.28302309e-08
1.293658992e-08
1.304400539e-08
1.315018128e-08
1.325196582e-08
1.334508476e-08
1.342379485e-08
1.348043603e-08
1.350485676e-08
1.348368689e-08
1.339944025e-08
1.322945882e-08
1.294473969e-08
1.250881757e-08
1.187686112e-08
1.099544163e-08
9.803290156e-09
8.232135548e-09
6.218481193e-09
3.705965444e-09
7.477660904e-10
1.159918565e-08
1.160066793e-08
1.160434498e-08
1.161028462e-08
1.16183459e-08
1.162854318e-08
1.16410226e-08
1.165595217e-08
1.167349244e-08
1.169381671e-08
1.1717125e-08
1.174364252e-08
1.177361483e-08
1.180730616e-08
1.184499992e-08
1.188699863e-08
1.19336231e-08
1.198521064e-08
1.204211297e-08
1.210469348e-08
1.21733238e-08
1.224837878e-08
1.233022935e-08
1.241923198e-08
1.251571458e-08
1.261995794e-08
1.27321711e-08
1.28524575e-08
1.298076784e-08
1.311683632e-08
1.326009584e-08
1.340956377e-08
1.356368653e-08
1.372012889e-08
1.387548932e-08
1.40249135e-08
1.416156736e-08
1.427591949e-08
1.435476792e-08
1.43799243e-08
1.432647429e-08
1.416050827e-08
1.383651697e-08
1.329437707e-08
1.245834568e-08
1.123561997e-08
9.524229133e-09
7.216531697e-09
4.16879694e-09
3.579300047e-10
1.160793611e-08
1.160963077e-08
1.161383453e-08
1.162062603e-08
1.162984005e-08
1.16414859e-08
1.165572409e-08
1.167274095e-08
1.169271434e-08
1.171583705e-08
1.174233367e-08
1.177245981e-08
1.180649744e-08
1.184475404e-08
1.188756427e-08
1.193529134e-08
1.198832749e-08
1.204709413e-08
1.211204208e-08
1.218365157e-08
1.226243183e-08
1.23489195e-08
1.24436756e-08
1.254728036e-08
1.266032563e-08
1.278340371e-08
1.291709115e-08
1.306192512e-08
1.32183689e-08
1.33867627e-08
1.356725462e-08
1.375970395e-08
1.396354492e-08
1.417759482e-08
1.43997846e-08
1.462677782e-08
1.48534265e-08
1.507199115e-08
1.527101746e-08
1.543369356e-08
1.553543941e-08
1.554026605e-08
1.539561387e-08
1.502406379e-08
1.431559645e-08
1.310981126e-08
1.122129703e-08
8.397394054e-09
4.499041199e-09
-5.367611239e-10
1.161313904e-08
1.161501662e-08
1.161967127e-08
1.162719335e-08
1.163739759e-08
1.165028918e-08
1.166604173e-08
1.168485857e-08
1.170693396e-08
1.173247913e-08
1.176174184e-08
1.17950064e-08
1.183258925e-08
1.187483897e-08
1.192213909e-08
1.197491068e-08
1.203361442e-08
1.20987526e-08
1.217087183e-08
1.225056603e-08
1.233847938e-08
1.243530845e-08
1.254180365e-08
1.265877025e-08
1.278706863e-08
1.292761247e-08
1.308136302e-08
1.324931825e-08
1.343249529e-08
1.363190243e-08
1.384849515e-08
1.408310947e-08
1.433636305e-08
1.46085089e-08
1.489921955e-08
1.52072686e-08
1.553005831e-08
1.586291465e-08
1.619802744e-08
1.652282247e-08
1.68174191e-08
1.705046673e-08
1.717238923e-08
1.710255733e-08
1.671011226e-08
1.576112474e-08
1.389601891e-08
1.034177485e-08
4.522328606e-09
-5.059519986e-09
1.161441157e-08
1.161643774e-08
1.162146303e-08
1.162958633e-08
1.164060609e-08
1.165452447e-08
1.167152656e-08
1.169183066e-08
1.171564575e-08
1.17431996e-08
1.177476073e-08
1.181063912e-08
1.185118231e-08
1.189677596e-08
1.194784773e-08
1.200487117e-08
1.206836921e-08
1.213891812e-08
1.221715247e-08
1.230377107e-08
1.239954324e-08
1.250531504e-08
1.262201558e-08
1.275066424e-08
1.289237903e-08
1.304838479e-08
1.322001971e-08
1.34087396e-08
1.361611958e-08
1.384385098e-08
1.409372882e-08
1.436762496e-08
1.466744069e-08
1.499502701e-08
1.535205385e-08
1.573980274e-08
1.615884365e-08
1.660853287e-08
1.708623092e-08
1.758607339e-08
1.809701917e-08
1.859964645e-08
1.90608283e-08
1.942367948e-08
1.958999328e-08
1.937137996e-08
1.842073808e-08
1.578342184e-08
1.001690525e-08
-7.057078218e-09
1.161144136e-08
1.161357633e-08
1.161888726e-08
1.16274759e-08
1.163912501e-08
1.16538364e-08
1.167180476e-08
1.169326063e-08
1.171842524e-08
1.174754022e-08
1.178089141e-08
1.181881039e-08
1.186167083e-08
1.190988971e-08
1.196393202e-08
1.202431577e-08
1.209161684e-08
1.216647482e-08
1.224960006e-08
1.234178197e-08
1.244389823e-08
1.255692495e-08
1.268194823e-08
1.282017752e-08
1.297296105e-08
1.314180328e-08
1.332838393e-08
1.353457836e-08
1.376247915e-08
1.401441831e-08
1.429298801e-08
1.460105734e-08
1.494178174e-08
1.531859855e-08