/*--------------------------------*- C++ -*----------------------------------*\
| =========                 |                                                 |
| \\      /  F ield         | foam-extend: Open Source CFD                    |
|  \\    /   O peration     | Version:     4.1                                |
|   \\  /    A nd           | Web:         http://www.foam-extend.org         |
|    \\/     M anipulation  |                                                 |
\*---------------------------------------------------------------------------*/
FoamFile
{
    version     2.0;
    format      ascii;
    class       surfaceScalarField;
    location    "130000";
    object      phi;
}
// * * * * * * * * * * * * * * * * * * * * * * * * * * * * * * * * * * * * * //

dimensions      [0 3 -1 0 0 0 0];

internalField   nonuniform List<scalar> 
31542
(
1.062516677e-07
3.078332259e-09
1.006129647e-07
5.638704197e-09
9.409930051e-08
6.51366404e-09
8.730313781e-08
6.796161686e-09
8.050599264e-08
6.797143807e-09
7.396730838e-08
6.53868308e-09
6.786108805e-08
6.106219726e-09
6.228240813e-08
5.578679986e-09
5.72765778e-08
5.005831035e-09
5.285380008e-08
4.422778846e-09
4.89995113e-08
3.854290072e-09
4.568087988e-08
3.318632573e-09
4.285304946e-08
2.827831206e-09
4.046500558e-08
2.388044183e-09
3.846393097e-08
2.001074496e-09
3.67981403e-08
1.665790337e-09
3.541899886e-08
1.379141178e-09
3.428208486e-08
1.136914047e-09
3.334776649e-08
9.343188242e-10
3.258135627e-08
7.664110087e-10
3.195298384e-08
6.283733035e-10
3.143729127e-08
5.156932512e-10
3.101302448e-08
4.242670558e-10
3.066257634e-08
3.504479311e-10
3.037148713e-08
2.910886522e-10
3.012797422e-08
2.435122169e-10
2.992250443e-08
2.054692037e-10
2.974740522e-08
1.750988932e-10
2.959651847e-08
1.50886762e-10
2.946489963e-08
1.316192079e-10
2.93485611e-08
1.163392021e-10
2.924425708e-08
1.043049605e-10
2.914930577e-08
9.495242696e-11
2.906144497e-08
8.78619564e-11
2.897871661e-08
8.272932375e-11
2.889937632e-08
7.934088231e-11
2.882182393e-08
7.755245391e-11
2.874455208e-08
7.727145507e-11
2.866610957e-08
7.844185824e-11
2.858507724e-08
8.103171895e-11
2.850005393e-08
8.502303492e-11
2.840965046e-08
9.040365335e-11
2.831249016e-08
9.716088118e-11
2.820721445e-08
1.052764739e-10
2.809249238e-08
1.147227547e-10
2.796703311e-08
1.254596804e-10
2.782960034e-08
1.374328918e-10
2.767902795e-08
1.505723315e-10
2.751423638e-08
1.647914425e-10
1.799871194e-10
2.7334249e-08
1.113827376e-07
1.025592227e-09
1.139929521e-07
3.028488603e-09
1.160789772e-07
4.427639824e-09
1.174507649e-07
5.42437601e-09
1.180670361e-07
6.180874845e-09
1.179230573e-07
6.68266319e-09
1.171123341e-07
6.916942841e-09
1.15763248e-07
6.9277646e-09
1.14002533e-07
6.766543462e-09
1.119485503e-07
6.476758604e-09
1.097066135e-07
6.096224166e-09
1.073657491e-07
5.659495067e-09
1.049977359e-07
5.195843157e-09
1.026582615e-07
4.727518018e-09
1.003885141e-07
4.270821568e-09
9.821729067e-08
3.837013253e-09
9.616318064e-08
3.433250206e-09
9.423666889e-08
3.063424225e-09
9.24420538e-08
2.728931857e-09
9.077909191e-08
2.4293706e-09
8.924433802e-08
2.163125024e-09
8.783219632e-08
1.927833298e-09
8.653572628e-08
1.720736238e-09
8.534731724e-08
1.538856992e-09
8.425905475e-08
1.379351826e-09
8.326301496e-08
1.239552875e-09
8.235146789e-08
1.117016708e-09
8.151700257e-08
1.009563718e-09
8.075259987e-08
9.15287853e-10
8.005166549e-08
8.325510692e-10
7.940803369e-08
7.599681591e-10
7.881595091e-08
6.963852184e-10
7.827004701e-08
6.408546185e-10
7.776529944e-08
5.926087913e-10
7.72969944e-08
5.510343823e-10
7.686068801e-08
5.15647659e-10
7.645216921e-08
4.860716058e-10
7.606742589e-08
4.620149014e-10
7.570261476e-08
4.432529013e-10
7.535403563e-08
4.296106713e-10
7.501811048e-08
4.209480057e-10
7.469136763e-08
4.171463298e-10
7.437043099e-08
4.180973058e-10
7.405201427e-08
4.236929035e-10
7.373291991e-08
4.338167712e-10
7.341004212e-08
4.483370903e-10
7.308037323e-08
4.671013185e-10
7.274101425e-08
4.899307684e-10
7.238918842e-08
5.166167435e-10
5.469179491e-10
7.20222572e-08
1.09648091e-07
7.075010771e-10
1.107365201e-07
1.940057372e-09
1.12200418e-07
2.963740042e-09
1.138600531e-07
3.764739783e-09
1.156257357e-07
4.415191921e-09
1.173691079e-07
4.939291356e-09
1.189644008e-07
5.321650833e-09
1.203306466e-07
5.561519779e-09
1.214231275e-07
5.674063451e-09
1.222235467e-07
5.67633996e-09
1.227349218e-07
5.584849221e-09
1.22976983e-07
5.417433661e-09
1.229801345e-07
5.192691183e-09
1.227795686e-07
4.928083447e-09
1.224114961e-07
4.638893792e-09
1.219106332e-07
4.337876267e-09
1.213086989e-07
4.035185016e-09
1.206336081e-07
3.738515647e-09
1.199091914e-07
3.453349006e-09
1.191552704e-07
3.183291732e-09
1.183879469e-07
2.930448282e-09
1.176200071e-07
2.695772276e-09
1.168613696e-07
2.479372761e-09
1.16119454e-07
2.280771743e-09
1.153996629e-07
2.099142444e-09
1.147057571e-07
1.933458489e-09
1.140401717e-07
1.782602478e-09
1.134042849e-07
1.645451151e-09
1.12798639e-07
1.520934666e-09
1.122231174e-07
1.408073594e-09
1.116770873e-07
1.30599927e-09
1.111595112e-07
1.213962159e-09
1.106690347e-07
1.131331755e-09
1.10204053e-07
1.057590651e-09
1.097627624e-07
9.923248282e-10
1.09343198e-07
9.352116229e-10
1.089432626e-07
8.860063853e-10
1.085607484e-07
8.445285431e-10
1.081933535e-07
8.106476765e-10
1.078386943e-07
7.842700278e-10
1.074943172e-07
7.653255833e-10
1.071577082e-07
7.537559175e-10
1.068263031e-07
7.495029392e-10
1.064974977e-07
7.524985904e-10
1.061686599e-07
7.626547864e-10
1.05837143e-07
7.798540025e-10
1.055002984e-07
8.03945844e-10
1.051554909e-07
8.347379803e-10
1.04800116e-07
8.719912466e-10
9.154154584e-10
1.044316181e-07
1.095662888e-07
4.712131252e-10
1.100942685e-07
1.412078326e-09
1.108160873e-07
2.241921308e-09
1.116590363e-07
2.921790355e-09
1.126106743e-07
3.463552989e-09
1.13661255e-07
3.888709264e-09
1.14778276e-07
4.20462835e-09
1.159226614e-07
4.417132961e-09
1.170583641e-07
4.538359671e-09
1.181526865e-07
4.58201689e-09
1.191774932e-07
4.560042216e-09
1.201116016e-07
4.483324959e-09
1.209417175e-07
4.362574928e-09
1.216617285e-07
4.208072016e-09
1.222715167e-07
4.029104802e-09
1.227756212e-07
3.833770851e-09
1.231818546e-07
3.628950536e-09
1.235000465e-07
3.420322703e-09
1.237409899e-07
3.212404621e-09
1.23915639e-07
3.008641973e-09
1.240345449e-07
2.811542029e-09
1.241074918e-07
2.622825281e-09
1.24143287e-07
2.443577594e-09
1.241496664e-07
2.274392443e-09
1.241333074e-07
2.115501294e-09
1.240998796e-07
1.966885786e-09
1.240541164e-07
1.828364825e-09
1.239999034e-07
1.699663246e-09
1.239403716e-07
1.580465611e-09
1.238779888e-07
1.470455819e-09
1.238146438e-07
1.369344165e-09
1.237517215e-07
1.276884596e-09
1.236901691e-07
1.192884351e-09
1.236305524e-07
1.117207589e-09
1.235731027e-07
1.049774518e-09
1.235177571e-07
9.905570936e-10
1.23464191e-07
9.395722201e-10
1.234118461e-07
8.968731288e-10
1.233599536e-07
8.625397978e-10
1.233075544e-07
8.366688531e-10
1.232535168e-07
8.193629374e-10
1.231965525e-07
8.107200701e-10
1.231352322e-07
8.108232101e-10
1.230680008e-07
8.19730115e-10
1.22993192e-07
8.374636999e-10
1.229090428e-07
8.640032127e-10
1.22813712e-07
8.992765806e-10
1.22705297e-07
9.431529099e-10
1.225818513e-07
9.954368674e-10
1.055862884e-09
1.224414036e-07
1.094415029e-07
3.597092073e-10
1.097678195e-07
1.085761601e-09
1.102594024e-07
1.750338616e-09
1.108630744e-07
2.318118746e-09
1.115418278e-07
2.784799882e-09
1.122725949e-07
3.157942169e-09
1.130345e-07
3.442722796e-09
1.138088726e-07
3.642759663e-09
1.145821084e-07
3.765122992e-09
1.153442737e-07
3.81985073e-09
1.160870214e-07
3.817293811e-09
1.16803194e-07
3.767151944e-09
1.174871681e-07
3.678600643e-09
1.18135022e-07
3.560218293e-09
1.187444459e-07
3.419680975e-09
1.193146108e-07
3.263605965e-09
1.198459937e-07
3.097567307e-09
1.203401502e-07
2.926165485e-09
1.207994507e-07
2.753103069e-09
1.212268186e-07
2.581273072e-09
1.216254948e-07
2.412865032e-09
1.219988406e-07
2.249479077e-09
1.223501811e-07
2.092237038e-09
1.22682689e-07
1.941884683e-09
1.229993064e-07
1.798884348e-09
1.233026963e-07
1.663496249e-09
1.23595217e-07
1.53584448e-09
1.238789127e-07
1.415967969e-09
1.241555173e-07
1.303861281e-09
1.244264667e-07
1.199506604e-09
1.246929145e-07
1.102896243e-09
1.249557505e-07
1.014048315e-09
1.252156183e-07
9.3301602e-10
1.254729335e-07
8.598918472e-10
1.257278993e-07
7.948083074e-10
1.259805209e-07
7.379353149e-10
1.262306182e-07
6.894750303e-10
1.264778367e-07
6.496546812e-10
1.26721658e-07
6.187185568e-10
1.269614076e-07
5.969191846e-10
1.271962634e-07
5.845069199e-10
1.274252639e-07
5.817193853e-10
1.276473161e-07
5.887709932e-10
1.278612038e-07
6.058424838e-10
1.280655969e-07
6.330707657e-10
1.282590611e-07
6.705391587e-10
1.284400702e-07
7.182675418e-10
1.286070194e-07
7.762037507e-10
1.287582369e-07
8.442194669e-10
9.22101009e-10
1.288919989e-07
1.094061998e-07
2.835088322e-10
1.096399378e-07
8.520226441e-10
1.100062867e-07
1.383988915e-09
1.104699449e-07
1.854459906e-09
1.110012358e-07
2.253508423e-09
1.115783328e-07
2.580844845e-09
1.121829217e-07
2.838133511e-09
1.127984836e-07
3.027197342e-09
1.134117491e-07
3.15185693e-09
1.140132571e-07
3.218342169e-09
1.145965642e-07
3.233986113e-09
1.151575095e-07
3.206206109e-09
1.156938596e-07
3.142250031e-09
1.162049833e-07
3.049094245e-09
1.166914413e-07
2.933222664e-09
1.171546199e-07
2.800427083e-09
1.175964596e-07
2.655727243e-09
1.180192508e-07
2.503373835e-09
1.18425468e-07
2.346885393e-09
1.188176363e-07
2.189104516e-09
1.191982284e-07
2.032272657e-09
1.195695907e-07
1.878116572e-09
1.199338905e-07
1.727936926e-09
1.202930823e-07
1.582692522e-09
1.206488889e-07
1.443077363e-09
1.210027961e-07
1.309588725e-09
1.213560562e-07
1.182584368e-09
1.217096956e-07
1.062328973e-09
1.22064525e-07
9.490323124e-10
1.224211533e-07
8.428788005e-10
1.227800009e-07
7.440486769e-10
1.231413137e-07
6.527351952e-10
1.235051747e-07
5.691543744e-10
1.238715154e-07
4.935505226e-10
1.242401243e-07
4.261989588e-10
1.246106545e-07
3.674048348e-10
1.249826308e-07
3.1749871e-10
1.253554563e-07
2.76829152e-10
1.257284153e-07
2.457594942e-10
1.261006769e-07
2.24657373e-10
1.264712994e-07
2.138841701e-10
1.268392341e-07
2.137846623e-10
1.27203329e-07
2.246761055e-10
1.275623344e-07
2.468371857e-10
1.279149084e-07
2.804969312e-10
1.282596243e-07
3.258235113e-10
1.285949782e-07
3.829138228e-10
1.28919401e-07
4.517811587e-10
1.292312601e-07
5.323603408e-10
6.244822637e-10
1.295288786e-07
1.093873292e-07
2.261798019e-10
1.095597152e-07
6.796365863e-10
1.09834473e-07
1.109230932e-09
1.101915408e-07
1.497391756e-09
1.106111809e-07
1.833867968e-09
1.110768087e-07
2.115216573e-09
1.115738713e-07
2.341070293e-09
1.120888561e-07
2.512212045e-09
1.126099162e-07
2.630796371e-09
1.131276281e-07
2.70062992e-09
1.136349825e-07
2.726631493e-09
1.141270442e-07
2.714144371e-09
1.146006984e-07
2.668595786e-09
1.150544389e-07
2.595353587e-09
1.154880924e-07
2.499568935e-09
1.159025083e-07
2.38601074e-09
1.162992745e-07
2.258960443e-09
1.166804747e-07
2.122173124e-09
1.170484832e-07
1.978876628e-09
1.174057959e-07
1.831791757e-09
1.17754899e-07
1.683169738e-09
1.180981723e-07
1.534843444e-09
1.184378231e-07
1.388286109e-09
1.187758441e-07
1.244671395e-09
1.1911399e-07
1.104931141e-09
1.194537698e-07
9.698087224e-10
1.197964476e-07
8.399066818e-10
1.201430502e-07
7.157265769e-10
1.20494379e-07
5.977037218e-10
1.208510241e-07
4.862337069e-10
1.212133785e-07
3.816941024e-10
1.215816506e-07
2.844625626e-10
1.219558819e-07
1.949224899e-10
1.22335956e-07
1.134759895e-10
1.227216088e-07
4.054598622e-11
1.231124398e-07
-2.342608806e-11
1.235079073e-07
-7.796878682e-11
1.239073425e-07
-1.226059397e-10
1.243099527e-07
-1.56850848e-10
1.247148301e-07
-1.802202402e-10
1.251209564e-07
-1.922423846e-10
1.25527208e-07
-1.924670504e-10
1.259323612e-07
-1.804769851e-10
1.26335098e-07
-1.558993942e-10
1.267340119e-07
-1.184167574e-10
1.271276134e-07
-6.777768866e-11
1.27514331e-07
-3.803673662e-12
1.278925588e-07
7.35535137e-11
1.282606126e-07
1.643064676e-10
2.683094122e-10
1.28616785e-07
1.093735238e-07
1.826556953e-10
1.095047442e-07
5.484160561e-10
1.09716906e-07
8.970691906e-10
1.09998293e-07
1.216004743e-09
1.103354804e-07
1.496680522e-09
1.107157641e-07
1.734932632e-09
1.111275912e-07
1.929242858e-09
1.115603573e-07
2.079445427e-09
1.120046172e-07
2.186535962e-09
1.124524899e-07
2.252756772e-09
1.128977739e-07
2.281347127e-09
1.1333581e-07
2.276108205e-09
1.137633207e-07
2.24108503e-09
1.141782813e-07
2.180392978e-09
1.145797659e-07
2.098084237e-09
1.149677575e-07
1.998018843e-09
1.153429513e-07
1.883766359e-09
1.157065724e-07
1.758551876e-09
1.160602137e-07
1.625235235e-09
1.164056946e-07
1.486310827e-09
1.167449417e-07
1.343922651e-09
1.170798929e-07
1.199892036e-09
1.174124247e-07
1.055753944e-09
1.177442981e-07
9.12797533e-10
1.180771207e-07
7.721082163e-10
1.184123235e-07
6.346058485e-10
1.187511484e-07
5.010819793e-10
1.190946417e-07
3.722335039e-10
1.194436466e-07
2.486988886e-10
1.19798826e-07
1.310542224e-10
1.201606617e-07
1.985805214e-11
1.20529449e-07
-8.43252995e-11
1.209053128e-07
-1.809417576e-10
1.212882075e-07
-2.694189565e-10
1.216779268e-07
-3.491734378e-10
1.220741078e-07
-4.196070093e-10
1.224762471e-07
-4.801080558e-10
1.228836988e-07
-5.300575734e-10
1.23295679e-07
-5.688310957e-10
1.237112676e-07
-5.958088955e-10
1.241294119e-07
-6.103867994e-10
1.245489321e-07
-6.119873458e-10
1.249685272e-07
-6.000721421e-10
1.25386783e-07
-5.741549591e-10
1.258021819e-07
-5.338153534e-10
1.262131171e-07
-4.787126325e-10
1.266179118e-07
-4.085985076e-10
1.270147972e-07
-3.233322961e-10
1.274019837e-07
-2.228802801e-10
-1.073420783e-10
1.27777635e-07
1.093642074e-07
1.48448137e-10
1.09467517e-07
4.45106317e-10
1.096358659e-07
7.287202645e-10
1.098618205e-07
9.900501119e-10
1.101361809e-07
1.222319957e-09
1.104495921e-07
1.421521277e-09
1.107932331e-07
1.58560156e-09
1.111589192e-07
1.71375895e-09
1.115392235e-07
1.806231332e-09
1.119277153e-07
1.864264771e-09
1.123191123e-07
1.889949946e-09
1.127092754e-07
1.885944958e-09
1.13095131e-07
1.855229278e-09
1.134745839e-07
1.800939752e-09
1.138464168e-07
1.726251048e-09
1.142101651e-07
1.634270352e-09
1.145659804e-07
1.527950871e-09
1.149144983e-07
1.410034093e-09
1.152567154e-07
1.283018317e-09
1.155938799e-07
1.149146409e-09
1.159273956e-07
1.01040682e-09
1.1625874e-07
8.685472653e-10
1.165893971e-07
7.250963222e-10
1.169208079e-07
5.813861754e-10
1.172543291e-07
4.385865417e-10
1.175912021e-07
2.977326929e-10
1.179325336e-07
1.597504863e-10
1.182793069e-07
2.546026802e-11
1.186323011e-07
-1.042953439e-10
1.189921787e-07
-2.28823475e-10
1.193594134e-07
-3.473768536e-10
1.197343261e-07
-4.592381439e-10
1.201170766e-07
-5.636923847e-10
1.205076699e-07
-6.600123818e-10
1.20905953e-07
-7.474565878e-10
1.213116152e-07
-8.25269189e-10
1.217241887e-07
-8.926815633e-10
1.221430476e-07
-9.489165203e-10
1.225674112e-07
-9.93194627e-10
1.229963449e-07
-1.024742689e-09
1.234287632e-07
-1.042805091e-09
1.238634323e-07
-1.046656469e-09
1.242989756e-07
-1.035615514e-09
1.247338805e-07
-1.009059902e-09
1.251665072e-07
-9.66441912e-10
1.25595099e-07
-9.073042469e-10
1.260177966e-07
-8.312961601e-10
1.264326519e-07
-7.381882339e-10
1.268376538e-07
-6.278830359e-10
-5.004300684e-10
1.272307415e-07
1.093575467e-07
1.209015357e-10
1.09440697e-07
3.619561522e-10
1.095768436e-07
5.925736295e-10
1.097611057e-07
8.057880037e-10
1.099871932e-07
9.96232142e-10
1.102483593e-07
1.160354893e-09
1.105379539e-07
1.296006511e-09
1.108496416e-07
1.402070832e-09
1.111775521e-07
1.478320655e-09
1.115164642e-07
1.52535245e-09
1.118619516e-07
1.544462498e-09
1.122104299e-07
1.537466486e-09
1.12559135e-07
1.50652398e-09
1.129060719e-07
1.454002499e-09
1.132499494e-07
1.382373137e-09
1.135900973e-07
1.294122174e-09
1.139263712e-07
1.191676821e-09
1.142590548e-07
1.077350397e-09
1.145887672e-07
9.533059139e-10
1.149163748e-07
8.215386125e-10
1.152429146e-07
6.838667071e-10
1.155695293e-07
5.419321723e-10
1.158974054e-07
3.972198088e-10
1.162277211e-07
2.510700694e-10
1.165616252e-07
1.04682173e-10
1.169001984e-07
-4.084080515e-11
1.172444229e-07
-1.844741444e-10
1.175951534e-07
-3.252702992e-10
1.17953167e-07
-4.623090639e-10
1.183190667e-07
-5.947230286e-10
1.186933372e-07
-7.216473222e-10
1.190763187e-07
-8.422194187e-10
1.194681985e-07
-9.555721475e-10
1.198690117e-07
-1.060825638e-09
1.202786373e-07
-1.15708231e-09
1.20696794e-07
-1.243426e-09
1.211230363e-07
-1.318923884e-09
1.215567508e-07
-1.382631076e-09
1.21997154e-07
-1.433597814e-09
1.224432903e-07
-1.470879066e-09
1.228940319e-07
-1.49354682e-09
1.233480799e-07
-1.500704421e-09
1.238039671e-07
-1.49150262e-09
1.242600641e-07
-1.465157022e-09
1.247145884e-07
-1.420966506e-09
1.251656162e-07
-1.358332238e-09
1.256110966e-07
-1.276776632e-09
1.260488692e-07
-1.175960978e-09
1.264766872e-07
-1.055701492e-09
-9.15984479e-10
1.26892241e-07
1.093525618e-07
9.83398137e-11
1.094206685e-07
2.938496017e-10
1.095326096e-07
4.806325942e-10
1.096851027e-07
6.532947807e-10
1.098737795e-07
8.075550382e-10
1.100937555e-07
9.403784852e-10
1.103400323e-07
1.049729313e-09
1.106077275e-07
1.134375395e-09
1.108922356e-07
1.193812344e-09
1.111893792e-07
1.22820871e-09
1.114955267e-07
1.238314759e-09
1.118076539e-07
1.225338978e-09
1.121233534e-07
1.190824148e-09
1.124408141e-07
1.136541364e-09
1.127587839e-07
1.064403014e-09
1.130765167e-07
9.763890285e-10
1.133937094e-07
8.74483929e-10
1.137104296e-07
7.606300292e-10
1.140270484e-07
6.366869109e-10
1.14344175e-07
5.044116225e-10
1.146625902e-07
3.654511538e-10
1.149831793e-07
2.213426747e-10
1.153069372e-07
7.346170382e-11
1.156348463e-07
-7.683926151e-11
1.159679007e-07
-2.283724402e-10
1.163070478e-07
-3.799880415e-10
1.16653179e-07
-5.306055561e-10
1.170071047e-07
-6.791960721e-10
1.173695523e-07
-8.24756601e-10
1.177411294e-07
-9.662997862e-10
1.18122326e-07
-1.102843506e-09
1.185135047e-07
-1.2333978e-09
1.189148898e-07
-1.356957166e-09
1.193265585e-07
-1.472494454e-09
1.197484326e-07
-1.578956606e-09
1.2018027e-07
-1.675263616e-09
1.206216566e-07
-1.760310644e-09
1.210719985e-07
-1.832973092e-09
1.215305153e-07
-1.892114597e-09
1.219962342e-07
-1.936597967e-09
1.224679863e-07
-1.96529907e-09
1.229444052e-07
-1.977123434e-09
1.234239278e-07
-1.971025115e-09
1.239047983e-07
-1.946027376e-09
1.243850762e-07
-1.901244689e-09
1.248626489e-07
-1.835905641e-09
1.253352478e-07
-1.749376116e-09
1.258004684e-07
-1.641181655e-09
1.262557951e-07
-1.511027937e-09
-1.358818931e-09
1.266986296e-07
1.093487453e-07
7.959455356e-11
1.094053499e-07
2.372451056e-10
1.094986765e-07
3.873059763e-10
1.096264696e-07
5.25501423e-10
1.097856495e-07
6.483747857e-10
1.099726698e-07
7.533578733e-10
1.101837966e-07
8.386022104e-10
1.104153002e-07
9.028716596e-10
1.106635992e-07
9.455132261e-10
1.109253845e-07
9.664233203e-10
1.111977176e-07
9.659814246e-10
1.11478093e-07
9.449632009e-10
1.117644644e-07
9.044522354e-10
1.120552451e-07
8.457602515e-10
1.123492897e-07
7.703580286e-10
1.126458626e-07
6.798158214e-10
1.129445986e-07
5.757475868e-10
1.132454522e-07
4.597761914e-10
1.135486451e-07
3.334936164e-10
1.138545969e-07
1.984595126e-10
1.141639754e-07
5.607250757e-11
1.14477461e-07
-9.21429631e-11
1.147958837e-07
-2.449609869e-10
1.151201176e-07
-4.010732228e-10
1.154510376e-07
-5.592926358e-10
1.157895219e-07
-7.184725479e-10
1.161364127e-07
-8.77496598e-10
1.164924923e-07
-1.035275634e-09
1.168584713e-07
-1.190735262e-09
1.172349737e-07
-1.342801745e-09
1.176225222e-07
-1.490391431e-09
1.180215243e-07
-1.632399555e-09
1.184322593e-07
-1.767692002e-09
1.188548643e-07
-1.895099621e-09
1.192893219e-07
-2.013414507e-09
1.197354468e-07
-2.121388898e-09
1.201928731e-07
-2.217737269e-09
1.206610416e-07
-2.301141784e-09
1.211391882e-07
-2.37026119e-09
1.216263335e-07
-2.423743195e-09
1.221212749e-07
-2.46024036e-09
1.226225807e-07
-2.47842936e-09
1.231285888e-07
-2.477033298e-09
1.236374079e-07
-2.454846582e-09
1.241469248e-07
-2.410761736e-09
1.246548163e-07
-2.343797481e-09
1.25158567e-07
-2.253127393e-09
1.256554929e-07
-2.138108008e-09
1.2614277e-07
-1.998304991e-09
-1.833516183e-09
1.266174674e-07
1.093457566e-07
6.383803003e-11
1.093933577e-07
1.896441467e-10
1.094720491e-07
3.086144522e-10
1.095802667e-07
4.172836491e-10
1.097158235e-07
5.128176901e-10
1.098761422e-07
5.930388971e-10
1.100584451e-07
6.562991334e-10
1.102598996e-07
7.014171114e-10
1.104777381e-07
7.276747168e-10
1.107093607e-07
7.348007077e-10
1.109524186e-07
7.229233354e-10
1.112048724e-07
6.925091032e-10
1.114650241e-07
6.443001949e-10
1.117315284e-07
5.792555278e-10
1.120033893e-07
4.984968245e-10
1.122799418e-07
4.0326305e-10
1.125608255e-07
2.948635389e-10
1.128459262e-07
1.746750789e-10
1.131354773e-07
4.394228527e-11
1.134297277e-07
-9.579099799e-11
1.137291949e-07
-2.433946201e-10
1.140345554e-07
-3.975032332e-10
1.143465069e-07
-5.569123024e-10
1.146658546e-07
-7.20420865e-10
1.149934172e-07
-8.868554603e-10
1.153300197e-07
-1.055075365e-09
1.156764795e-07
-1.223956529e-09
1.160335831e-07
-1.392379134e-09
1.164020659e-07
-1.559217635e-09
1.167825943e-07
-1.723329641e-09
1.171757487e-07
-1.883545178e-09
1.175820063e-07
-2.038656813e-09
1.180017257e-07
-2.187411318e-09
1.184351292e-07
-2.328503265e-09
1.188822852e-07
-2.460570821e-09
1.193430902e-07
-2.582194277e-09
1.198172504e-07
-2.691897905e-09
1.203042639e-07
-2.788155568e-09
1.20803403e-07
-2.86940037e-09
1.213136985e-07
-2.934038546e-09
1.218339261e-07
-2.980467636e-09
1.223625957e-07
-3.007098866e-09
1.228979457e-07
-3.012383546e-09
1.234379416e-07
-2.994843107e-09
1.239802815e-07
-2.953102076e-09
1.245224069e-07
-2.885923098e-09
1.250615224e-07
-2.792242909e-09
1.255946221e-07
-2.671207835e-09
1.261185238e-07
-2.522207034e-09
-2.344901894e-09
1.266299089e-07
1.09343366e-07
5.047208372e-11
1.093837707e-07
1.492395943e-10
1.094507266e-07
2.416585636e-10
1.095431506e-07
3.248594689e-10
1.096594878e-07
3.96480308e-10
1.09797866e-07
4.546605342e-10
1.099562264e-07
4.979387311e-10
1.101324312e-07
5.252124208e-10
1.103243594e-07
5.357465827e-10
1.105299909e-07
5.291691551e-10
1.107474756e-07
5.05438649e-10
1.109751832e-07
4.648013271e-10
1.112117372e-07
4.077461104e-10
1.114560309e-07
3.349616856e-10
1.117072292e-07
2.472983537e-10
1.11964762e-07
1.457298962e-10
1.122284044e-07
3.122089083e-11
1.124979537e-07
-9.487452206e-11
1.127735405e-07
-2.316445922e-10
1.130555558e-07
-3.778062247e-10
1.133444057e-07
-5.322442541e-10
1.136407004e-07
-6.937976229e-10
1.139451068e-07
-8.613185431e-10
1.142583706e-07
-1.033684699e-09
1.145812943e-07
-1.209779432e-09
1.14914707e-07
-1.38848829e-09
1.152594432e-07
-1.568692874e-09
1.156163241e-07
-1.749259948e-09
1.159861381e-07
-1.929031197e-09
1.163696221e-07
-2.106813148e-09
1.167674438e-07
-2.281366265e-09
1.171801817e-07
-2.451394332e-09
1.176083056e-07
-2.615535156e-09
1.180521552e-07
-2.772353043e-09
1.185119175e-07
-2.920333498e-09
1.189876036e-07
-3.057880763e-09
1.194790241e-07
-3.183318901e-09
1.199857654e-07
-3.294897064e-09
1.205071644e-07
-3.390799528e-09
1.210422869e-07
-3.469160886e-09
1.215899061e-07
-3.528086594e-09
1.221484862e-07
-3.565678902e-09
1.227161705e-07
-3.580068116e-09
1.232907758e-07
-3.569448974e-09
1.238697946e-07
-3.532121395e-09
1.244504055e-07
-3.466534363e-09
1.250294938e-07
-3.371331436e-09
1.25603682e-07
-3.245396156e-09
1.261693697e-07
-3.087895e-09
-2.898315352e-09
1.267227827e-07
1.093414162e-07
3.905601102e-11
1.093759556e-07
1.147003029e-10
1.094333212e-07
1.842928905e-10
1.095127732e-07
2.454073628e-10
1.096132122e-07
2.96041241e-10
1.09733286e-07
3.345866629e-10
1.098714802e-07
3.597446889e-10
1.100261961e-07
3.704967057e-10
1.101958249e-07
3.661179257e-10
1.103788146e-07
3.461797106e-10
1.105737291e-07
3.105242186e-10
1.107792927e-07
2.592379367e-10
1.10994418e-07
1.926209179e-10
1.112182304e-07
1.111492386e-10
1.114500858e-07
1.544287775e-11
1.116895147e-07
-9.369921585e-11
1.119362198e-07
-2.154844542e-10
1.121902865e-07
-3.489412689e-10
1.12451788e-07
-4.931461048e-10
1.127210673e-07
-6.470853057e-10
1.129985566e-07
-8.097333244e-10
1.132848246e-07
-9.800654281e-10
1.13580548e-07
-1.157041966e-09
1.138864815e-07
-1.339618445e-09
1.142034419e-07
-1.526740145e-09
1.145322884e-07
-1.71733505e-09
1.148739034e-07
-1.910307901e-09
1.152291745e-07
-2.104530912e-09
1.155989766e-07
-2.298832919e-09
1.159841521e-07
-2.491988206e-09
1.16385491e-07
-2.682704677e-09
1.16803709e-07
-2.869612022e-09
1.172394247e-07
-3.051250759e-09
1.176931343e-07
-3.226062728e-09
1.18165184e-07
-3.392383681e-09
1.186557414e-07
-3.548438826e-09
1.191647643e-07
-3.692342256e-09
1.196919681e-07
-3.822101128e-09
1.20236794e-07
-3.935625393e-09
1.207983769e-07
-4.030743796e-09
1.213755169e-07
-4.105226613e-09
1.219666533e-07
-4.156815436e-09
1.22569845e-07
-4.183260135e-09
1.231827585e-07
-4.182362901e-09
1.238026656e-07
-4.152028705e-09
1.244264517e-07
-4.090320552e-09
1.250506373e-07
-3.995517411e-09
1.256714128e-07
-3.866172623e-09
1.262846872e-07
-3.701170105e-09
-3.499774684e-09
1.268861464e-07
1.093397951e-07
2.926098935e-11
1.093694623e-07
8.503317747e-11
1.094188443e-07
1.349108426e-10
1.094874514e-07
1.768001957e-10
1.09574518e-07
2.08974552e-10
1.096790783e-07
2.300264554e-10
1.098000288e-07
2.387943917e-10
1.099361891e-07
2.343366155e-10
1.100863622e-07
2.159451502e-10
1.102493823e-07
1.831600016e-10
1.104241552e-07
1.357516468e-10
1.106097002e-07
7.369332798e-11
1.108051834e-07
-2.86205102e-12
1.110099296e-07
-9.3596908e-11
1.112234264e-07
-1.980539248e-10
1.114453794e-07
-3.156523544e-10
1.116756268e-07
-4.457320762e-10
1.119142242e-07
-5.875387237e-10
1.121613433e-07
-7.402650647e-10
1.124173222e-07
-9.030640729e-10
1.126826374e-07
-1.075048522e-09
1.129578821e-07
-1.255310181e-09
1.132437567e-07
-1.442916754e-09
1.135410503e-07
-1.636912344e-09
1.138506253e-07
-1.836315424e-09
1.141734024e-07
-2.040112321e-09
1.145103442e-07
-2.247249664e-09
1.148624382e-07
-2.456624753e-09
1.152306794e-07
-2.667073804e-09
1.156160506e-07
-2.877359167e-09
1.160195019e-07
-3.086155737e-09
1.16441927e-07
-3.292036941e-09
1.168841372e-07
-3.493461001e-09
1.173468325e-07
-3.688758279e-09
1.178305688e-07
-3.876120564e-09
1.183357227e-07
-4.053593383e-09
1.188624524e-07
-4.219072532e-09
1.194106571e-07
-4.370305968e-09
1.199799337e-07
-4.504902117e-09
1.205695355e-07
-4.620345697e-09
1.211783307e-07
-4.714022123e-09
1.218047664e-07
-4.783251278e-09
1.224468373e-07
-4.825330961e-09
1.231020643e-07
-4.837589951e-09
1.237674855e-07
-4.817450172e-09
1.244396611e-07
-4.762496502e-09
1.251146948e-07
-4.670551457e-09
1.25788273e-07
-4.539751378e-09
1.264557225e-07
-4.368620332e-09
-4.156137101e-09
1.271120845e-07
1.093384209e-07
2.084013507e-11
1.093639641e-07
5.948995074e-11
1.094065755e-07
9.229942696e-11
1.094659474e-07
1.174281957e-10
1.095415647e-07
1.333572246e-10
1.096327621e-07
1.388291406e-10
1.097387583e-07
1.327984748e-10
1.098586947e-07
1.144005112e-10
1.099916779e-07
8.296237608e-11
1.10136842e-07
3.799645148e-11
1.102933841e-07
-2.07900781e-11
1.104605813e-07
-9.350351235e-11
1.106378181e-07
-1.80098583e-10
1.108246044e-07
-2.803831593e-10
1.110205931e-07
-3.940427064e-10
1.112255921e-07
-5.206515119e-10
1.114395517e-07
-6.596917978e-10
1.116625785e-07
-8.105655229e-10
1.11894924e-07
-9.726106216e-10
1.121369768e-07
-1.145116874e-09
1.123892579e-07
-1.327329765e-09
1.12652407e-07
-1.518459532e-09
1.129271735e-07
-1.717683603e-09
1.132144061e-07
-1.924145101e-09
1.1351504e-07
-2.136949445e-09
1.138300854e-07
-2.355157742e-09
1.141606138e-07
-2.577777952e-09
1.145077431e-07
-2.803753949e-09
1.148726217e-07
-3.031952316e-09
1.152564099e-07
-3.261147359e-09
1.156602588e-07
-3.490004698e-09
1.160852855e-07
-3.717063869e-09
1.165325448e-07
-3.940720623e-09
1.170029959e-07
-4.159209803e-09
1.174974646e-07
-4.370589864e-09
1.18016601e-07
-4.57273033e-09
1.185608317e-07
-4.763303674e-09
1.191303086e-07
-4.939783105e-09
1.197248541e-07
-5.099447762e-09
1.203439051e-07
-5.2393969e-09
1.209864575e-07
-5.356574818e-09
1.216510143e-07
-5.447808096e-09
1.223355397e-07
-5.509856003e-09
1.230374244e-07
-5.539474137e-09
1.237534651e-07
-5.533490877e-09
1.244798632e-07
-5.48889541e-09
1.252122455e-07
-5.402934476e-09
1.259457068e-07
-5.273213075e-09
1.266748799e-07
-5.09779333e-09
-4.875284721e-09
1.273940277e-07
1.093372294e-07
1.361076644e-11
1.093592121e-07
3.750712321e-11
1.093959821e-07
5.552927291e-11
1.094473757e-07
6.603451717e-11
1.095130569e-07
6.767611764e-11
1.095925758e-07
5.931041656e-11
1.096853654e-07
4.000911072e-11
1.097908346e-07
8.931783926e-12
1.099083992e-07
-3.460173518e-11
1.100374036e-07
-9.100753244e-11
1.101772559e-07
-1.606419293e-10
1.10327435e-07
-2.436823998e-10
1.104875133e-07
-3.401768462e-10
1.106571724e-07
-4.500423784e-10
1.108362093e-07
-5.730797532e-10
1.110245462e-07
-7.089886131e-10
1.112222356e-07
-8.573812388e-10
1.11429464e-07
-1.017793934e-09
1.116465519e-07
-1.189698577e-09
1.118739492e-07
-1.372514346e-09
1.12112234e-07
-1.565614768e-09
1.123621069e-07
-1.768332751e-09
1.126243854e-07
-1.979962329e-09
1.128999968e-07
-2.199756561e-09
1.131899703e-07
-2.4269228e-09
1.13495428e-07
-2.660615287e-09
1.138175752e-07
-2.899925133e-09
1.141576889e-07
-3.143867672e-09
1.145171034e-07
-3.391367057e-09
1.148971939e-07
-3.641238293e-09
1.152993559e-07
-3.892167048e-09
1.157249792e-07
-4.1426877e-09
1.161754184e-07
-4.391160313e-09
1.166519556e-07
-4.635747531e-09
1.17155758e-07
-4.874392564e-09
1.176878271e-07
-5.104799721e-09
1.182489424e-07
-5.324419209e-09
1.188395971e-07
-5.530438196e-09
1.194599294e-07
-5.719780368e-09
1.201096488e-07
-5.88911628e-09
1.207879612e-07
-6.034886889e-09
1.21493496e-07
-6.153342735e-09
1.22224241e-07
-6.240600789e-09
1.22977487e-07
-6.292719995e-09
1.237497916e-07
-6.3057954e-09
1.245369656e-07
-6.276069594e-09
1.253340889e-07
-6.200058172e-09
1.261355588e-07
-6.074683283e-09
1.269351723e-07
-5.897407323e-09
-5.666357091e-09
1.277262445e-07
1.093361827e-07
7.428043655e-12
1.093550619e-07
1.8627763e-11
1.093867259e-07
2.386524628e-11
1.094310872e-07
2.167316417e-11
1.094879201e-07
1.084331094e-11
1.095570501e-07
-9.819343909e-12