/*--------------------------------*- C++ -*----------------------------------*\
| =========                 |                                                 |
| \\      /  F ield         | foam-extend: Open Source CFD                    |
|  \\    /   O peration     | Version:     4.1                                |
|   \\  /    A nd           | Web:         http://www.foam-extend.org         |
|    \\/     M anipulation  |                                                 |
\*---------------------------------------------------------------------------*/
FoamFile
{
    version     2.0;
    format      ascii;
    class       volVectorField;
    location    "130000";
    object      U;
}
// * * * * * * * * * * * * * * * * * * * * * * * * * * * * * * * * * * * * * //

dimensions      [0 1 -1 0 0 0 0];

internalField   nonuniform List<vector> 
15920
(
(0.0002132416982 5.121308064e-06 0)
(0.0002058499628 1.131000162e-05 0)
(0.0001957290953 1.372784771e-05 0)
(0.0001821915564 1.420925715e-05 0)
(0.0001677757582 1.375986422e-05 0)
(0.0001541357421 1.268758902e-05 0)
(0.0001415363356 1.117753468e-05 0)
(0.0001298972524 9.454311795e-06 0)
(0.0001192933364 7.716577323e-06 0)
(0.0001098456424 6.091322269e-06 0)
(0.0001015798849 4.646866019e-06 0)
(9.443478668e-05 3.41485923e-06 0)
(8.831738968e-05 2.401395627e-06 0)
(8.31284797e-05 1.593922465e-06 0)
(7.876514563e-05 9.689477123e-07 0)
(7.512268266e-05 4.986889466e-07 0)
(7.209983042e-05 1.552570634e-07 0)
(6.960307739e-05 -8.708339052e-08 0)
(6.754845653e-05 -2.507898598e-07 0)
(6.586189889e-05 -3.54662869e-07 0)
(6.447908972e-05 -4.139689394e-07 0)
(6.334503962e-05 -4.408313309e-07 0)
(6.241338107e-05 -4.447139042e-07 0)
(6.164550134e-05 -4.32917929e-07 0)
(6.100956213e-05 -4.109441832e-07 0)
(6.047952509e-05 -3.828331829e-07 0)
(6.003425229e-05 -3.514904925e-07 0)
(5.9656692e-05 -3.189572502e-07 0)
(5.933314738e-05 -2.866206904e-07 0)
(5.905263069e-05 -2.553756554e-07 0)
(5.880630675e-05 -2.257487284e-07 0)
(5.858702265e-05 -1.979944314e-07 0)
(5.838891687e-05 -1.721705939e-07 0)
(5.820709897e-05 -1.481978016e-07 0)
(5.803739136e-05 -1.259062786e-07 0)
(5.787612493e-05 -1.050725135e-07 0)
(5.771998055e-05 -8.544722742e-08 0)
(5.756586934e-05 -6.677593598e-08 0)
(5.741084573e-05 -4.881337872e-08 0)
(5.725204768e-05 -3.133326489e-08 0)
(5.708665932e-05 -1.413479072e-08 0)
(5.691189165e-05 2.952921895e-09 0)
(5.672497771e-05 2.00677726e-08 0)
(5.652317915e-05 3.731274881e-08 0)
(5.630380182e-05 5.47551199e-08 0)
(5.606421822e-05 7.242684793e-08 0)
(5.580189474e-05 9.032618286e-08 0)
(5.551442198e-05 1.084195907e-07 0)
(5.519954702e-05 1.266443877e-07 0)
(5.485520646e-05 1.449122806e-07 0)
(0.0002201181719 5.64894779e-06 0)
(0.0002251673612 1.295310063e-05 0)
(0.0002303381517 1.662276202e-05 0)
(0.0002340178415 1.856398809e-05 0)
(0.0002359279952 1.968023973e-05 0)
(0.0002362950974 2.009483718e-05 0)
(0.0002352997067 1.985313707e-05 0)
(0.0002331038127 1.909830148e-05 0)
(0.0002299379055 1.798858799e-05 0)
(0.0002260649756 1.66468726e-05 0)
(0.0002217224923 1.516860763e-05 0)
(0.0002171043812 1.363426462e-05 0)
(0.000212367327 1.211009038e-05 0)
(0.0002076372187 1.064618802e-05 0)
(0.0002030109312 9.277119839e-06 0)
(0.0001985581328 8.024273628e-06 0)
(0.0001943252768 6.898410646e-06 0)
(0.0001903404354 5.902017847e-06 0)
(0.0001866176002 5.031508548e-06 0)
(0.0001831602034 4.27919511e-06 0)
(0.0001799640316 3.63491872e-06 0)
(0.0001770196131 3.087309237e-06 0)
(0.0001743140666 2.624715067e-06 0)
(0.0001718325845 2.235867302e-06 0)
(0.0001695594545 1.910243674e-06 0)
(0.0001674787214 1.638282858e-06 0)
(0.0001655746466 1.411514272e-06 0)
(0.0001638320283 1.222600888e-06 0)
(0.0001622363985 1.065307983e-06 0)
(0.0001607741252 9.344249786e-07 0)
(0.0001594324429 8.256632071e-07 0)
(0.0001581994364 7.355437773e-07 0)
(0.0001570639921 6.612842429e-07 0)
(0.0001560157312 6.006899235e-07 0)
(0.0001550449331 5.520535724e-07 0)
(0.0001541424563 5.140652756e-07 0)
(0.0001532996615 4.857331449e-07 0)
(0.0001525083399 4.663145749e-07 0)
(0.000151760649 4.552573845e-07 0)
(0.000151049056 4.521498515e-07 0)
(0.0001503662917 4.56678506e-07 0)
(0.0001497053129 4.685926457e-07 0)
(0.0001490592763 4.876746481e-07 0)
(0.0001484215215 5.137152971e-07 0)
(0.0001477855647 5.46493431e-07 0)
(0.0001471451006 5.857595478e-07 0)
(0.0001464940119 6.312243108e-07 0)
(0.0001458263868 6.825492305e-07 0)
(0.0001451365424 7.393397165e-07 0)
(0.0001444190555 8.011409398e-07 0)
(0.0002187780271 1.477452694e-06 0)
(0.0002200331535 4.418835283e-06 0)
(0.0002226080494 7.065039035e-06 0)
(0.000225939579 9.430477436e-06 0)
(0.0002294952628 1.153662032e-05 0)
(0.0002330427221 1.326722557e-05 0)
(0.0002364132962 1.452574198e-05 0)
(0.0002394142184 1.530781325e-05 0)
(0.000241897234 1.565913987e-05 0)
(0.0002437946007 1.563785098e-05 0)
(0.0002450995209 1.530772185e-05 0)
(0.0002458408927 1.473773604e-05 0)
(0.0002460706914 1.399651845e-05 0)
(0.0002458558105 1.314589816e-05 0)
(0.0002452694248 1.223743608e-05 0)
(0.0002443838071 1.13118089e-05 0)
(0.0002432660241 1.039954457e-05 0)
(0.0002419759064 9.522233082e-06 0)
(0.0002405652345 8.693971578e-06 0)
(0.0002390776079 7.9229009e-06 0)
(0.0002375488159 7.212662351e-06 0)
(0.0002360075543 6.563660981e-06 0)
(0.0002344763132 5.974099171e-06 0)
(0.0002329722496 5.44080307e-06 0)
(0.0002315080047 4.959810014e-06 0)
(0.0002300925497 4.526805499e-06 0)
(0.000228731923 4.137451313e-06 0)
(0.0002274298165 3.787608385e-06 0)
(0.000226188051 3.473470127e-06 0)
(0.0002250069689 3.191631213e-06 0)
(0.0002238857529 2.939112917e-06 0)
(0.0002228226791 2.713359431e-06 0)
(0.0002218153136 2.512215275e-06 0)
(0.000220860665 2.333891207e-06 0)
(0.0002199552998 2.176924003e-06 0)
(0.0002190954306 2.040133591e-06 0)
(0.0002182769812 1.922579703e-06 0)
(0.0002174956358 1.823519345e-06 0)
(0.0002167468763 1.74236608e-06 0)
(0.0002160260105 1.678651783e-06 0)
(0.0002153281959 1.631991186e-06 0)
(0.0002146484595 1.602049547e-06 0)
(0.0002139817183 1.58851341e-06 0)
(0.0002133227986 1.591064233e-06 0)
(0.0002126664583 1.609354961e-06 0)
(0.000212007412 1.6429894e-06 0)
(0.0002113403574 1.691503176e-06 0)
(0.0002106600035 1.754349017e-06 0)
(0.000209961102 1.830885691e-06 0)
(0.0002092384833 1.920369088e-06 0)
(0.0002187699113 1.497909517e-06 0)
(0.0002194922592 4.357149496e-06 0)
(0.0002207601371 6.779166086e-06 0)
(0.0002223900837 8.651284145e-06 0)
(0.000224224234 1.006808144e-05 0)
(0.0002262299357 1.113292136e-05 0)
(0.0002284021804 1.189347923e-05 0)
(0.0002306844782 1.238231004e-05 0)
(0.000232989415 1.2636642e-05 0)
(0.0002352381888 1.26917431e-05 0)
(0.0002373701648 1.257738473e-05 0)
(0.0002393383321 1.232115656e-05 0)
(0.0002411084913 1.195061237e-05 0)
(0.0002426609597 1.149238477e-05 0)
(0.0002439899716 1.097094531e-05 0)
(0.0002451008374 1.040804304e-05 0)
(0.0002460067118 9.822497652e-06 0)
(0.000246725841 9.230044612e-06 0)
(0.0002472793182 8.643286474e-06 0)
(0.0002476892625 8.071837743e-06 0)
(0.0002479774454 7.522634213e-06 0)
(0.000248164366 7.000326292e-06 0)
(0.0002482687025 6.507694185e-06 0)
(0.0002483070321 6.046043819e-06 0)
(0.0002482937585 5.615616173e-06 0)
(0.0002482411909 5.215929663e-06 0)
(0.0002481596879 4.846038054e-06 0)
(0.0002480578235 4.504729304e-06 0)
(0.0002479425675 4.190680096e-06 0)
(0.000247819472 3.902571051e-06 0)
(0.0002476928499 3.639167014e-06 0)
(0.0002475659367 3.399368505e-06 0)
(0.0002474410315 3.182240288e-06 0)
(0.000247319619 2.987022215e-06 0)
(0.0002472024725 2.813126887e-06 0)
(0.0002470897408 2.660127583e-06 0)
(0.0002469810198 2.52773929e-06 0)
(0.000246875413 2.415795071e-06 0)
(0.0002467715819 2.3242198e-06 0)
(0.0002466677886 2.253002634e-06 0)
(0.0002465619335 2.202168856e-06 0)
(0.0002464515887 2.171752055e-06 0)
(0.0002463340292 2.161767454e-06 0)
(0.0002462062632 2.172186586e-06 0)
(0.0002460650618 2.202913567e-06 0)
(0.0002459069885 2.253763181e-06 0)
(0.0002457284312 2.324439937e-06 0)
(0.000245525637 2.414520926e-06 0)
(0.0002452947476 2.523442884e-06 0)
(0.0002450318359 2.6504904e-06 0)
(0.0002187107797 1.048438257e-06 0)
(0.0002191120139 3.047881041e-06 0)
(0.0002199179288 4.825473082e-06 0)
(0.0002210467762 6.32256408e-06 0)
(0.0002223646722 7.551402873e-06 0)
(0.0002237898472 8.536659463e-06 0)
(0.0002252881472 9.286052931e-06 0)
(0.0002268319538 9.806672033e-06 0)
(0.0002283889495 1.011886838e-05 0)
(0.0002299317428 1.025130254e-05 0)
(0.000231441584 1.023277062e-05 0)
(0.0002329043618 1.008987828e-05 0)
(0.0002343078088 9.847492515e-06 0)
(0.0002356420446 9.528566092e-06 0)
(0.0002369006201 9.153505418e-06 0)
(0.0002380805302 8.739869988e-06 0)
(0.0002391816533 8.302419753e-06 0)
(0.0002402062009 7.853276558e-06 0)
(0.000241158244 7.402112414e-06 0)
(0.00024204322 6.956388319e-06 0)
(0.0002428674283 6.521648116e-06 0)
(0.0002436375815 6.10183603e-06 0)
(0.0002443604471 5.699607451e-06 0)
(0.0002450425799 5.316617429e-06 0)
(0.0002456901312 4.953785183e-06 0)
(0.000246308727 4.611512608e-06 0)
(0.000246903398 4.289855003e-06 0)
(0.0002474785478 3.988658135e-06 0)
(0.0002480379498 3.70766851e-06 0)
(0.0002485847653 3.44661673e-06 0)
(0.000249121573 3.205275668e-06 0)
(0.0002496504053 2.983498482e-06 0)
(0.0002501727848 2.781240448e-06 0)
(0.0002506897609 2.598567917e-06 0)
(0.0002512019432 2.435657198e-06 0)
(0.0002517095321 2.292785563e-06 0)
(0.0002522123458 2.170316262e-06 0)
(0.0002527098437 2.068679296e-06 0)
(0.0002532011478 1.988350682e-06 0)
(0.0002536850606 1.929828816e-06 0)
(0.0002541600813 1.89360894e-06 0)
(0.0002546244225 1.880157401e-06 0)
(0.0002550760254 1.889885709e-06 0)
(0.0002555125768 1.923125056e-06 0)
(0.0002559315259 1.980101972e-06 0)
(0.0002563301035 2.060915319e-06 0)
(0.0002567053432 2.165515887e-06 0)
(0.0002570541076 2.293688068e-06 0)
(0.0002573731136 2.445035614e-06 0)
(0.0002576589582 2.61896214e-06 0)
(0.00021869515 8.080286448e-07 0)
(0.0002189774413 2.388812703e-06 0)
(0.0002195627028 3.858171811e-06 0)
(0.0002204119072 5.151637876e-06 0)
(0.0002214333604 6.242462777e-06 0)
(0.0002225574961 7.128691302e-06 0)
(0.0002237465854 7.814329314e-06 0)
(0.0002249731563 8.306546371e-06 0)
(0.0002262091609 8.619546969e-06 0)
(0.0002274299249 8.773535377e-06 0)
(0.0002286185479 8.790668821e-06 0)
(0.0002297650207 8.692767718e-06 0)
(0.0002308636488 8.500863034e-06 0)
(0.0002319117623 8.234858242e-06 0)
(0.0002329093202 7.912878522e-06 0)
(0.0002338584023 7.550774478e-06 0)
(0.0002347625185 7.161986949e-06 0)
(0.0002356260361 6.757641376e-06 0)
(0.0002364538063 6.346728688e-06 0)
(0.0002372508961 5.93632897e-06 0)
(0.0002380223636 5.531868985e-06 0)
(0.0002387730768 5.137394043e-06 0)
(0.0002395075829 4.755831177e-06 0)
(0.000240230025 4.389229346e-06 0)
(0.0002409440931 4.038971594e-06 0)
(0.000241653001 3.705956836e-06 0)
(0.0002423594862 3.390750445e-06 0)
(0.0002430658229 3.093706328e-06 0)
(0.0002437738429 2.815063944e-06 0)
(0.0002444849589 2.555021999e-06 0)
(0.0002452001927 2.313792265e-06 0)
(0.000245920203 2.091636571e-06 0)
(0.0002466453118 1.888888705e-06 0)
(0.0002473755275 1.705967535e-06 0)
(0.0002481105647 1.543380904e-06 0)
(0.0002488498608 1.401720619e-06 0)
(0.0002495925903 1.281651221e-06 0)
(0.0002503376776 1.183890686e-06 0)
(0.0002510838073 1.10919418e-06 0)
(0.0002518294311 1.058333637e-06 0)
(0.0002525727749 1.032071696e-06 0)
(0.0002533118462 1.031135308e-06 0)
(0.0002540444424 1.056189419e-06 0)
(0.0002547681592 1.107809919e-06 0)
(0.0002554804025 1.186457026e-06 0)
(0.0002561784001 1.29244896e-06 0)
(0.0002568592171 1.425933612e-06 0)
(0.0002575197769 1.586863186e-06 0)
(0.0002581568734 1.775001519e-06 0)
(0.0002587671905 1.98987831e-06 0)
(0.0002186865638 6.408932389e-07 0)
(0.0002188965298 1.899917179e-06 0)
(0.0002193319915 3.084791753e-06 0)
(0.0002199745963 4.145519741e-06 0)
(0.0002207680385 5.055753471e-06 0)
(0.0002216646463 5.80940314e-06 0)
(0.0002226339202 6.408219097e-06 0)
(0.0002236517588 6.856356533e-06 0)
(0.0002246940004 7.161429425e-06 0)
(0.000225738308 7.335202621e-06 0)
(0.0002267673989 7.392064146e-06 0)
(0.000227769451 7.34730847e-06 0)
(0.0002287368395 7.216311988e-06 0)
(0.0002296651607 7.014116686e-06 0)
(0.0002305528066 6.75496573e-06 0)
(0.0002314005574 6.451872194e-06 0)
(0.0002322110055 6.116376476e-06 0)
(0.0002329879676 5.75847642e-06 0)
(0.0002337360109 5.386650504e-06 0)
(0.0002344600888 5.007934775e-06 0)
(0.0002351652514 4.628045146e-06 0)
(0.0002358564176 4.251534309e-06 0)
(0.000236538212 3.88196539e-06 0)
(0.0002372148585 3.522086481e-06 0)
(0.0002378901176 3.173996786e-06 0)
(0.0002385672587 2.8392979e-06 0)
(0.0002392490548 2.51922616e-06 0)
(0.0002399377934 2.214764368e-06 0)
(0.0002406352975 1.926734841e-06 0)
(0.0002413429515 1.655866906e-06 0)
(0.000242061731 1.402857995e-06 0)
(0.0002427922307 1.168419443e-06 0)
(0.0002435346934 9.532967002e-07 0)
(0.0002442890374 7.58288088e-07 0)
(0.0002450548761 5.842548036e-07 0)
(0.0002458315382 4.321216931e-07 0)
(0.0002466180908 3.028701148e-07 0)
(0.0002474133119 1.975285094e-07 0)
(0.0002482157343 1.171507611e-07 0)
(0.0002490236567 6.279234549e-08 0)
(0.0002498351507 3.548791123e-08 0)
(0.0002506480721 3.622527016e-08 0)
(0.0002514600711 6.591720753e-08 0)
(0.0002522686031 1.25373389e-07 0)
(0.0002530709416 2.152722202e-07 0)
(0.0002538641897 3.361338377e-07 0)
(0.0002546452818 4.882956202e-07 0)
(0.0002554110268 6.718883154e-07 0)
(0.0002561581375 8.867865958e-07 0)
(0.0002568832145 1.132622712e-06 0)
(0.0002186802109 5.140644261e-07 0)
(0.0002188400457 1.524704429e-06 0)
(0.0002191737584 2.483380443e-06 0)
(0.0002196735352 3.355370467e-06 0)
(0.0002203030953 4.118700976e-06 0)
(0.0002210287945 4.763812693e-06 0)
(0.0002218264047 5.287625767e-06 0)
(0.0002226758679 5.690254771e-06 0)
(0.0002235578217 5.975086947e-06 0)
(0.0002244544162 6.149100246e-06 0)
(0.0002253510738 6.221967966e-06 0)
(0.0002262369266 6.204753029e-06 0)
(0.0002271042487 6.109040457e-06 0)
(0.0002279478794 5.946472654e-06 0)
(0.0002287649251 5.728378819e-06 0)
(0.0002295545069 5.465426465e-06 0)
(0.000230317403 5.167368905e-06 0)
(0.0002310556401 4.84291513e-06 0)
(0.0002317721266 4.499688763e-06 0)
(0.0002324703473 4.144243627e-06 0)
(0.0002331541094 3.782122091e-06 0)
(0.0002338273282 3.417947571e-06 0)
(0.0002344938581 3.05553867e-06 0)
(0.0002351573653 2.698030677e-06 0)
(0.0002358212386 2.347998085e-06 0)
(0.0002364885294 2.007570685e-06 0)
(0.0002371619166 1.67853694e-06 0)
(0.0002378436919 1.362430732e-06 0)
(0.000238535748 1.060625371e-06 0)
(0.0002392395872 7.743735748e-07 0)
(0.0002399563376 5.048665407e-07 0)
(0.0002406867932 2.532784446e-07 0)
(0.0002414313684 2.080238335e-08 0)
(0.0002421901324 -1.913369507e-07 0)
(0.0002429628314 -3.818772387e-07 0)
(0.0002437488966 -5.495158941e-07 0)
(0.0002445474465 -6.929130328e-07 0)
(0.0002453573377 -8.106974976e-07 0)
(0.0002461771415 -9.014882268e-07 0)
(0.0002470051503 -9.639175486e-07 0)
(0.0002478393891 -9.966534296e-07 0)
(0.0002486776232 -9.984260327e-07 0)
(0.0002495173689 -9.680571481e-07 0)
(0.0002503559078 -9.044902441e-07 0)
(0.0002511903027 -8.068214553e-07 0)
(0.0002520174213 -6.743297073e-07 0)
(0.0002528339748 -5.065003757e-07 0)
(0.0002536365195 -3.030517876e-07 0)
(0.0002544214816 -6.399937058e-08 0)
(0.0002551852227 2.103560829e-07 0)
(0.0002186759098 4.160865871e-07 0)
(0.0002188017432 1.234642825e-06 0)
(0.0002190654429 2.015224952e-06 0)
(0.0002194637306 2.732397716e-06 0)
(0.0002199716951 3.367815194e-06 0)
(0.0002205653888 3.911083499e-06 0)
(0.0002212266531 4.357154186e-06 0)
(0.000221939822 4.704416282e-06 0)
(0.0002226896778 4.954246244e-06 0)
(0.0002234620296 5.11086173e-06 0)
(0.000224244846 5.180724007e-06 0)
(0.000225028659 5.171699159e-06 0)
(0.000225806351 5.092390523e-06 0)
(0.0002265728376 4.951711145e-06 0)
(0.0002273248526 4.758560573e-06 0)
(0.0002280607603 4.52153724e-06 0)
(0.000228780314 4.248711398e-06 0)
(0.0002294843746 3.947482899e-06 0)
(0.0002301746417 3.624511919e-06 0)
(0.0002308534177 3.2857011e-06 0)
(0.0002315234043 2.936213854e-06 0)
(0.0002321875258 2.580521495e-06 0)
(0.0002328487798 2.222473713e-06 0)
(0.0002335101184 1.86537936e-06 0)
(0.0002341743603 1.512086784e-06 0)
(0.0002348441208 1.165068838e-06 0)
(0.000235521758 8.265056111e-07 0)
(0.000236209358 4.983550166e-07 0)
(0.0002369087073 1.824017007e-07 0)
(0.0002376212457 -1.196622424e-07 0)
(0.0002383481064 -4.062041338e-07 0)
(0.0002390900748 -6.756237879e-07 0)
(0.0002398476362 -9.263154493e-07 0)
(0.0002406209594 -1.156650342e-06 0)
(0.0002414098941 -1.364968937e-06 0)
(0.0002422139754 -1.549578345e-06 0)
(0.0002430324242 -1.708755373e-06 0)
(0.0002438641475 -1.840759853e-06 0)
(0.0002447077381 -1.943847118e-06 0)
(0.00024556148 -2.016287388e-06 0)
(0.000246423352 -2.056393211e-06 0)
(0.000247291033 -2.062549336e-06 0)
(0.0002481619106 -2.033244707e-06 0)
(0.0002490330929 -1.967107388e-06 0)
(0.0002499014233 -1.862940827e-06 0)
(0.0002507635004 -1.719761013e-06 0)
(0.0002516157023 -1.536836424e-06 0)
(0.0002524542128 -1.313724633e-06 0)
(0.0002532750629 -1.050274566e-06 0)
(0.0002540741766 -7.466854333e-07 0)
(0.000218672822 3.383644226e-07 0)
(0.0002187741584 1.003650873e-06 0)
(0.000218986909 1.639314539e-06 0)
(0.0002193100259 2.226176716e-06 0)
(0.0002197258594 2.749541841e-06 0)
(0.0002202173341 3.200052967e-06 0)
(0.0002207711935 3.57233974e-06 0)
(0.0002213754501 3.863887896e-06 0)
(0.0002220181096 4.074626245e-06 0)
(0.0002226877928 4.206727583e-06 0)
(0.0002233746156 4.264233231e-06 0)
(0.0002240705219 4.252528377e-06 0)
(0.0002247692083 4.177855082e-06 0)
(0.0002254659616 4.046943066e-06 0)
(0.0002261575261 3.866722917e-06 0)
(0.0002268419733 3.64408263e-06 0)
(0.0002275185339 3.385668799e-06 0)
(0.0002281873995 3.097745494e-06 0)
(0.0002288495232 2.786106287e-06 0)
(0.0002295064361 2.456031422e-06 0)
(0.0002301600821 2.112277872e-06 0)
(0.0002308126752 1.759097864e-06 0)
(0.0002314665754 1.400264241e-06 0)
(0.0002321241763 1.039135257e-06 0)
(0.0002327878208 6.787149489e-07 0)
(0.0002334597485 3.217009918e-07 0)
(0.0002341420431 -2.945837486e-08 0)
(0.0002348365601 -3.724918195e-07 0)
(0.0002355449165 -7.052740514e-07 0)
(0.0002362685 -1.025750666e-06 0)
(0.0002370084162 -1.331911324e-06 0)
(0.0002377654849 -1.62176503e-06 0)
(0.0002385402346 -1.893320901e-06 0)
(0.0002393328915 -2.144564549e-06 0)
(0.0002401433715 -2.373444998e-06 0)
(0.0002409712737 -2.577872208e-06 0)
(0.0002418158731 -2.755721951e-06 0)
(0.0002426761128 -2.904847056e-06 0)
(0.0002435505975 -3.023093418e-06 0)
(0.000244437589 -3.10832312e-06 0)
(0.0002453350047 -3.158443617e-06 0)
(0.0002462404175 -3.17144112e-06 0)
(0.0002471510601 -3.145417949e-06 0)
(0.0002480638337 -3.078632858e-06 0)
(0.0002489753223 -2.969543105e-06 0)
(0.0002498818144 -2.81684735e-06 0)
(0.0002507793284 -2.619527686e-06 0)
(0.0002516636445 -2.376889013e-06 0)
(0.0002525303444 -2.088594421e-06 0)
(0.0002533748606 -1.754701266e-06 0)
(0.0002186705057 2.753533747e-07 0)
(0.0002187535277 8.158908046e-07 0)
(0.0002189281183 1.332223552e-06 0)
(0.0002191944533 1.809629256e-06 0)
(0.0002195396683 2.236413888e-06 0)
(0.0002199513704 2.604505448e-06 0)
(0.0002204198854 2.908664284e-06 0)
(0.0002209361323 3.145873063e-06 0)
(0.0002214907425 3.315116643e-06 0)
(0.0002220746758 3.417233368e-06 0)
(0.0002226799379 3.454645757e-06 0)
(0.000223299839 3.430996543e-06 0)
(0.0002239289705 3.350789949e-06 0)
(0.0002245631342 3.219093351e-06 0)
(0.0002251992812 3.041295692e-06 0)
(0.000225835434 2.822904107e-06 0)
(0.0002264705744 2.569373509e-06 0)
(0.0002271045034 2.285978298e-06 0)
(0.0002277376971 1.977719814e-06 0)
(0.0002283711688 1.649277653e-06 0)
(0.000229006342 1.304958915e-06 0)
(0.0002296449188 9.487399463e-07 0)
(0.0002302887866 5.842613343e-07 0)
(0.0002309399526 2.148237763e-07 0)
(0.0002316004306 -1.565388945e-07 0)
(0.0002322721605 -5.270018143e-07 0)
(0.0002329569857 -8.939205622e-07 0)
(0.0002336566267 -1.254793467e-06 0)
(0.0002343726307 -1.607205136e-06 0)
(0.0002351063387 -1.94881088e-06 0)
(0.0002358588557 -2.277293725e-06 0)
(0.0002366310366 -2.590331849e-06 0)
(0.000237423472 -2.885578043e-06 0)
(0.0002382364688 -3.160643195e-06 0)
(0.0002390700306 -3.413086309e-06 0)
(0.000239923841 -3.640412399e-06 0)
(0.000240797248 -3.840077513e-06 0)
(0.0002416892475 -4.009500727e-06 0)
(0.0002425984689 -4.146083109e-06 0)
(0.000243523162 -4.247233509e-06 0)
(0.0002444611877 -4.310401139e-06 0)
(0.0002454100119 -4.33311402e-06 0)
(0.0002463667054 -4.313022162e-06 0)
(0.0002473279475 -4.247944598e-06 0)
(0.0002482900388 -4.135919346e-06 0)
(0.0002492489207 -3.975255187e-06 0)
(0.0002502002047 -3.764583654e-06 0)
(0.0002511392078 -3.50290863e-06 0)
(0.0002520609979 -3.189651291e-06 0)
(0.0002529604472 -2.824690568e-06 0)
(0.0002186687294 2.234398227e-07 0)
(0.0002187377321 6.608983264e-07 0)
(0.0002188830587 1.07776028e-06 0)
(0.0002191055494 1.462453207e-06 0)
(0.0002193955864 1.805555742e-06 0)
(0.0002197440222 2.100189826e-06 0)
(0.0002201438074 2.341518597e-06 0)
(0.0002205881506 2.526420035e-06 0)
(0.0002210698233 2.653392813e-06 0)
(0.0002215817116 2.722454424e-06 0)
(0.0002221174159 2.734939149e-06 0)
(0.0002226714644 2.693239052e-06 0)
(0.0002232393169 2.600548054e-06 0)
(0.0002238173458 2.460636805e-06 0)
(0.0002244028219 2.27765997e-06 0)
(0.0002249938754 2.055990653e-06 0)
(0.000225589426 1.800076879e-06 0)
(0.0002261890861 1.514335078e-06 0)
(0.0002267930631 1.203029365e-06 0)
(0.0002274020287 8.702916907e-07 0)
(0.0002280170632 5.200214752e-07 0)
(0.000228639577 1.558347307e-07 0)
(0.0002292711183 -2.188482258e-07 0)
(0.0002299133495 -6.00793354e-07 0)
(0.0002305680527 -9.869658804e-07 0)
(0.0002312370217 -1.374490811e-06 0)
(0.0002319219813 -1.760608853e-06 0)
(0.000232624559 -2.14265375e-06 0)
(0.0002333462563 -2.518015842e-06 0)
(0.0002340884174 -2.884110201e-06 0)
(0.0002348521968 -3.23834317e-06 0)
(0.0002356385311 -3.578085873e-06 0)
(0.0002364481133 -3.900655139e-06 0)
(0.0002372813665 -4.203299275e-06 0)
(0.0002381384172 -4.483188835e-06 0)
(0.000239019069 -4.737414086e-06 0)
(0.0002399227772 -4.962990216e-06 0)
(0.000240848623 -5.156870578e-06 0)
(0.0002417952894 -5.315967884e-06 0)
(0.0002427610385 -5.437183341e-06 0)
(0.0002437436928 -5.517443785e-06 0)
(0.0002447406214 -5.553746275e-06 0)
(0.0002457487322 -5.543209221e-06 0)
(0.0002467644719 -5.483128836e-06 0)
(0.0002477838333 -5.371039509e-06 0)
(0.0002488023747 -5.20477678e-06 0)
(0.0002498152495 -4.98254122e-06 0)
(0.0002508172474 -4.702960513e-06 0)
(0.0002518028464 -4.36514681e-06 0)
(0.0002527662751 -3.968747292e-06 0)
(0.0002186673365 1.801032697e-07 0)
(0.000218725358 5.3127624e-07 0)
(0.000218847726 8.642512399e-07 0)
(0.0002190356418 1.169726229e-06 0)
(0.0002192817828 1.44001148e-06 0)
(0.000219579315 1.669274022e-06 0)
(0.000219923113 1.853178894e-06 0)
(0.0002203081455 1.98870126e-06 0)
(0.0002207288804 2.074102797e-06 0)
(0.0002211797588 2.108875614e-06 0)
(0.0002216557035 2.09360114e-06 0)
(0.0002221523022 2.029768421e-06 0)
(0.0002226658235 1.919592585e-06 0)
(0.0002231932224 1.765847252e-06 0)
(0.0002237321537 1.57171466e-06 0)
(0.0002242809586 1.340652827e-06 0)
(0.0002248386311 1.076261427e-06 0)
(0.0002254047127 7.822650014e-07 0)
(0.0002259793063 4.623215045e-07 0)
(0.0002265629738 1.199534852e-07 0)
(0.0002271565067 -2.413518445e-07 0)
(0.0002277610246 -6.18239236e-07 0)
(0.0002283779676 -1.007510982e-06 0)
(0.0002290088942 -1.406072058e-06 0)
(0.0002296554094 -1.810944e-06 0)
(0.0002303191668 -2.219257751e-06 0)
(0.0002310018251 -2.628210578e-06 0)
(0.0002317049967 -3.03503356e-06 0)
(0.0002324302125 -3.43696417e-06 0)
(0.0002331788852 -3.8312194e-06 0)
(0.0002339522701 -4.214969707e-06 0)
(0.0002347514322 -4.585314533e-06 0)
(0.0002355772155 -4.939261917e-06 0)
(0.0002364302093 -5.273713245e-06 0)
(0.0002373107132 -5.585453558e-06 0)
(0.0002382187012 -5.871148706e-06 0)
(0.0002391537851 -6.127350653e-06 0)
(0.0002401151783 -6.350511593e-06 0)
(0.0002411016603 -6.537007353e-06 0)
(0.0002421115426 -6.68317035e-06 0)
(0.0002431426393 -6.785332167e-06 0)
(0.000244192242 -6.839875462e-06 0)
(0.0002452571028 -6.84329456e-06 0)
(0.0002463334275 -6.792263576e-06 0)
(0.0002474168783 -6.683710359e-06 0)
(0.0002485025898 -6.514894353e-06 0)
(0.0002495851998 -6.28348617e-06 0)
(0.0002506588945 -5.987645836e-06 0)
(0.0002517174696 -5.626095822e-06 0)
(0.0002527544046 -5.198185294e-06 0)
(0.0002186662212 1.435407868e-07 0)
(0.0002187154595 4.217261886e-07 0)
(0.0002188194457 6.832904411e-07 0)
(0.0002189795716 9.205982531e-07 0)
(0.0002191901884 1.12727954e-06 0)
(0.0002194461419 1.298363926e-06 0)
(0.0002197437182 1.43000157e-06 0)
(0.0002200792229 1.519347418e-06 0)
(0.0002204484585 1.564575783e-06 0)
(0.0002208471217 1.564858131e-06 0)
(0.0002212712334 1.520266181e-06 0)
(0.0002217172932 1.431644822e-06 0)
(0.0002221822972 1.300485335e-06 0)
(0.0002226637564 1.128801264e-06 0)
(0.0002231597266 9.19013656e-07 0)
(0.0002236687921 6.738608327e-07 0)
(0.0002241901465 3.962781108e-07 0)
(0.0002247234355 8.925706643e-08 0)
(0.0002252685869 -2.440573898e-07 0)
(0.0002258260453 -6.005631796e-07 0)
(0.0002263966888 -9.771885105e-07 0)
(0.000226981579 -1.370861924e-06 0)
(0.0002275819635 -1.778604642e-06 0)
(0.0002281992775 -2.197527234e-06 0)
(0.00022883508 -2.624780238e-06 0)
(0.000229491012 -3.05753756e-06 0)
(0.0002301687506 -3.49298336e-06 0)
(0.000230869962 -3.928287674e-06 0)
(0.000231596264 -4.36058186e-06 0)
(0.000232349191 -4.786933849e-06 0)
(0.0002331301571 -5.204320927e-06 0)
(0.0002339404177 -5.609603703e-06 0)
(0.000234781031 -5.99950451e-06 0)
(0.0002356528171 -6.370590609e-06 0)
(0.0002365563135 -6.719262843e-06 0)
(0.0002374917299 -7.04175131e-06 0)
(0.0002384589004 -7.334119567e-06 0)
(0.0002394572343 -7.592278665e-06 0)
(0.0002404856673 -7.812012148e-06 0)
(0.000241542614 -7.98901272e-06 0)
(0.0002426259245 -8.118930801e-06 0)
(0.0002437328458 -8.197434856e-06 0)
(0.0002448599923 -8.220283207e-06 0)
(0.0002460033284 -8.183406483e-06 0)
(0.0002471581638 -8.082998918e-06 0)
(0.0002483191656 -7.915615746e-06 0)
(0.0002494803889 -7.67827353e-06 0)
(0.0002506353274 -7.368549531e-06 0)
(0.0002517769845 -6.984675201e-06 0)
(0.0002528979617 -6.5256187e-06 0)
(0.0002186653107 1.124391382e-07 0)
(0.000218707386 3.283802968e-07 0)
(0.0002187963691 5.286991841e-07 0)
(0.0002189337408 7.06997592e-07 0)
(0.0002191151029 8.579124504e-07 0)
(0.0002193365455 9.771684316e-07 0)
(0.0002195954007 1.061346993e-06 0)
(0.0002198889934 1.107807784e-06 0)
(0.0002202141735 1.114721977e-06 0)
(0.0002205676432 1.08107542e-06 0)
(0.0002209463211 1.006603719e-06 0)
(0.0002213474786 8.916986459e-07 0)
(0.0002217687558 7.373109112e-07 0)
(0.00022220818 5.448662321e-07 0)
(0.0002226642221 3.161828052e-07 0)
(0.0002231357841 5.337075567e-08 0)
(0.000223622101 -2.411901773e-07 0)
(0.0002241229155 -5.650342621e-07 0)
(0.0002246384338 -9.155250476e-07 0)
(0.0002251691043 -1.289909809e-06 0)
(0.0002257156776 -1.685476591e-06 0)
(0.0002262791791 -2.099527573e-06 0)
(0.0002268608581 -2.529349231e-06 0)
(0.0002274621571 -2.972226092e-06 0)
(0.00022808466 -3.425434244e-06 0)
(0.0002287300515 -3.886229425e-06 0)
(0.0002294000827 -4.351832705e-06 0)
(0.000230096533 -4.819406647e-06 0)
(0.0002308211733 -5.286028218e-06 0)
(0.0002315757301 -5.748661472e-06 0)
(0.0002323618461 -6.204129666e-06 0)
(0.0002331810373 -6.649088164e-06 0)
(0.0002340346494 -7.079999881e-06 0)
(0.0002349238092 -7.493114574e-06 0)
(0.0002358493725 -7.884453566e-06 0)
(0.0002368118679 -8.249801796e-06 0)
(0.000237811436 -8.584709144e-06 0)
(0.0002388477661 -8.884502934e-06 0)
(0.0002399200314 -9.144313288e-06 0)
(0.0002410268245 -9.359112663e-06 0)
(0.0002421660958 -9.523770363e-06 0)
(0.0002433350986 -9.633122314e-06 0)
(0.0002445303426 -9.682056151e-06 0)
(0.000245747561 -9.665611151e-06 0)
(0.0002469816951 -9.579091217e-06 0)
(0.0002482268996 -9.41818736e-06 0)
(0.0002494765716 -9.17910511e-06 0)
(0.0002507234065 -8.858691939e-06 0)
(0.0002519594812 -8.454558622e-06 0)
(0.0002531763617 -7.965187151e-06 0)
(0.0002186645534 8.582571006e-08 0)
(0.0002187006749 2.48367714e-07 0)
(0.0002187771802 3.958690053e-07 0)
(0.0002188955778 5.228577027e-07 0)
(0.0002190524269 6.247387114e-07 0)
(0.000219244754 6.977869638e-07 0)
(0.0002194706671 7.389565677e-07 0)
(0.0002197282632 7.458192409e-07 0)
(0.0002200152185 7.165970466e-07 0)
(0.0002203290562 6.501667851e-07 0)
(0.0002206674411 5.460111922e-07 0)
(0.0002210282838 4.041853949e-07 0)
(0.000221409766 2.252437494e-07 0)
(0.0002218103761 1.016172733e-08 0)
(0.0002222289151 -2.397264231e-07 0)
(0.0002226645643 -5.228041107e-07 0)
(0.0002231168756 -8.37196484e-07 0)
(0.0002235857418 -1.180782489e-06 0)
(0.0002240713988 -1.551374934e-06 0)
(0.0002245743658 -1.946688335e-06 0)
(0.0002250954545 -2.364354237e-06 0)
(0.000225635745 -2.801953436e-06 0)
(0.0002261965402 -3.257018936e-06 0)
(0.0002267793369 -3.727043691e-06 0)
(0.0002273857948 -4.209475146e-06 0)
(0.0002280177044 -4.701698576e-06 0)
(0.0002286769568 -5.201018497e-06 0)
(0.0002293655102 -5.704635191e-06 0)
(0.0002300853558 -6.209616936e-06 0)
(0.0002308384806 -6.712870567e-06 0)
(0.0002316268275 -7.211110537e-06 0)
(0.0002324522516 -7.700827253e-06 0)
(0.0002333164703 -8.178256765e-06 0)
(0.000234221009 -8.639353766e-06 0)
(0.0002351671395 -9.07976978e-06 0)
(0.0002361558119 -9.494838897e-06 0)
(0.0002371875799 -9.879573659e-06 0)
(0.0002382625216 -1.02286736e-05 0)
(0.0002393801545 -1.053654877e-05 0)
(0.0002405393507 -1.079736036e-05 0)
(0.0002417382531 -1.100508038e-05 0)
(0.0002429741969 -1.115357155e-05 0)
(0.0002442436408 -1.123668784e-05 0)
(0.0002455421134 -1.124839533e-05 0)
(0.000246864181 -1.11829119e-05 0)
(0.0002482034421 -1.103486181e-05 0)
(0.0002495525523 -1.079943896e-05 0)
(0.0002509032844 -1.047257208e-05 0)
(0.0002522466249 -1.005108372e-05 0)
(0.0002535729062 -9.532833314e-06 0)
(0.0002186639113 6.297216561e-08 0)
(0.0002186949893 1.79535254e-07 0)
(0.0002187609212 2.813271225e-07 0)
(0.000218863201 3.63580221e-07 0)
(0.0002189991313 4.223019195e-07 0)
(0.0002191664677 4.542052499e-07 0)
(0.0002193639224 4.565463041e-07 0)