/*--------------------------------*- C++ -*----------------------------------*\
| =========                 |                                                 |
| \\      /  F ield         | foam-extend: Open Source CFD                    |
|  \\    /   O peration     | Version:     4.1                                |
|   \\  /    A nd           | Web:         http://www.foam-extend.org         |
|    \\/     M anipulation  |                                                 |
\*---------------------------------------------------------------------------*/
FoamFile
{
    version     2.0;
    format      ascii;
    class       volVectorField;
    location    "130000";
    object      vorticity;
}
// * * * * * * * * * * * * * * * * * * * * * * * * * * * * * * * * * * * * * //

dimensions      [0 0 -1 0 0 0 0];

internalField   nonuniform List<vector> 
15920
(
(0 -0 -0.00825641466)
(0 -0 -0.008405182989)
(0 -0 -0.008448863552)
(0 -0 -0.008323387544)
(0 -0 -0.00811211677)
(0 -0 -0.007873175029)
(0 -0 -0.007617552776)
(0 -0 -0.007346545237)
(0 -0 -0.007068699577)
(0 -0 -0.006794955141)
(0 -0 -0.006532959119)
(0 -0 -0.006286920117)
(0 -0 -0.006059217752)
(0 -0 -0.005851125165)
(0 -0 -0.005662902375)
(0 -0 -0.005493958575)
(0 -0 -0.005343146453)
(0 -0 -0.005209021429)
(0 -0 -0.005090010622)
(0 -0 -0.004984521523)
(0 -0 -0.004891016637)
(0 -0 -0.004808061678)
(0 -0 -0.004734351118)
(0 -0 -0.004668717474)
(0 -0 -0.004610128215)
(0 -0 -0.004557678587)
(0 -0 -0.00451058108)
(0 -0 -0.004468152661)
(0 -0 -0.004429801378)
(0 -0 -0.004395013319)
(0 -0 -0.004363340463)
(0 -0 -0.004334389728)
(0 -0 -0.004307813264)
(0 -0 -0.004283299996)
(0 -0 -0.004260568357)
(0 -0 -0.004239360148)
(0 -0 -0.004219435426)
(0 -0 -0.004200568339)
(0 -0 -0.004182543827)
(0 -0 -0.00416515511)
(0 -0 -0.004148201866)
(0 -0 -0.004131489028)
(0 -0 -0.004114826085)
(0 -0 -0.00409802683)
(0 -0 -0.004080909478)
(0 -0 -0.004063297099)
(0 -0 -0.004045018315)
(0 -0 -0.00402590822)
(0 -0 -0.004005809472)
(0 -0 -0.003984573512)
(0 -0 0.0003543246312)
(0 -0 -9.318458275e-06)
(0 -0 -0.0003973068955)
(0 -0 -0.0007985235101)
(0 -0 -0.001196118866)
(0 -0 -0.001573817167)
(0 -0 -0.001922452605)
(0 -0 -0.002236953046)
(0 -0 -0.002513363672)
(0 -0 -0.002749478677)
(0 -0 -0.002945707919)
(0 -0 -0.003104585051)
(0 -0 -0.003229767949)
(0 -0 -0.00332537088)
(0 -0 -0.003395633443)
(0 -0 -0.003444690219)
(0 -0 -0.003476380267)
(0 -0 -0.003494129132)
(0 -0 -0.003500906128)
(0 -0 -0.003499228926)
(0 -0 -0.003491191671)
(0 -0 -0.003478505384)
(0 -0 -0.00346254469)
(0 -0 -0.00344439675)
(0 -0 -0.003424908463)
(0 -0 -0.003404728728)
(0 -0 -0.003384345464)
(0 -0 -0.003364117647)
(0 -0 -0.00334430247)
(0 -0 -0.003325077883)
(0 -0 -0.003306560953)
(0 -0 -0.003288822603)
(0 -0 -0.003271899281)
(0 -0 -0.003255802087)
(0 -0 -0.003240523786)
(0 -0 -0.003226044125)
(0 -0 -0.00321233378)
(0 -0 -0.003199357224)
(0 -0 -0.00318707473)
(0 -0 -0.003175443729)
(0 -0 -0.003164419661)
(0 -0 -0.003153956453)
(0 -0 -0.003144006745)
(0 -0 -0.00313452192)
(0 -0 -0.003125452024)
(0 -0 -0.003116745603)
(0 -0 -0.003108349512)
(0 -0 -0.003100208746)
(0 -0 -0.003092266306)
(0 -0 -0.003084463119)
(0 -0 0.0001743724112)
(0 -0 0.0002531916992)
(0 -0 0.0003168513465)
(0 -0 0.0003443446877)
(0 -0 0.000329993927)
(0 -0 0.000276031277)
(0 -0 0.0001889652173)
(0 -0 7.67216366e-05)
(0 -0 -5.277924683e-05)
(0 -0 -0.0001922497148)
(0 -0 -0.0003354563248)
(0 -0 -0.0004774591048)
(0 -0 -0.0006146192333)
(0 -0 -0.0007444518799)
(0 -0 -0.0008654330377)
(0 -0 -0.0009768013806)
(0 -0 -0.001078368094)
(0 -0 -0.001170347437)
(0 -0 -0.001253217665)
(0 -0 -0.001327613913)
(0 -0 -0.001394249274)
(0 -0 -0.001453859138)
(0 -0 -0.001507164167)
(0 -0 -0.001554846181)
(0 -0 -0.001597536018)
(0 -0 -0.001635808358)
(0 -0 -0.001670180753)
(0 -0 -0.001701115433)
(0 -0 -0.001729022808)
(0 -0 -0.001754265866)
(0 -0 -0.001777164935)
(0 -0 -0.001798002447)
(0 -0 -0.001817027493)
(0 -0 -0.001834460037)
(0 -0 -0.001850494728)
(0 -0 -0.001865304297)
(0 -0 -0.001879042523)
(0 -0 -0.001891846803)
(0 -0 -0.001903840347)
(0 -0 -0.001915134023)
(0 -0 -0.001925827891)
(0 -0 -0.001936012459)
(0 -0 -0.001945769691)
(0 -0 -0.001955173795)
(0 -0 -0.001964291812)
(0 -0 -0.001973184054)
(0 -0 -0.001981904396)
(0 -0 -0.001990500441)
(0 -0 -0.001999013602)
(0 -0 -0.0020074791)
(0 -0 0.0001477214242)
(0 -0 0.0001504542052)
(0 -0 0.0001611557785)
(0 -0 0.0001800789405)
(0 -0 0.000204652743)
(0 -0 0.0002306924425)
(0 -0 0.0002537376958)
(0 -0 0.0002702243604)
(0 -0 0.0002779015152)
(0 -0 0.0002757757271)
(0 -0 0.0002638940734)
(0 -0 0.0002430613097)
(0 -0 0.0002145383566)
(0 -0 0.0001797836423)
(0 -0 0.0001402675494)
(0 -0 9.735434626e-05)
(0 -0 5.223745539e-05)
(0 -0 5.913830648e-06)
(0 -0 -4.081536257e-05)
(0 -0 -8.732854921e-05)
(0 -0 -0.0001331600343)
(0 -0 -0.0001779740446)
(0 -0 -0.0002215397405)
(0 -0 -0.0002637085558)
(0 -0 -0.0003043953838)
(0 -0 -0.000343562999)
(0 -0 -0.000381209509)
(0 -0 -0.0004173585751)
(0 -0 -0.0004520519334)
(0 -0 -0.0004853437552)
(0 -0 -0.0005172964653)
(0 -0 -0.0005479776924)
(0 -0 -0.0005774580821)
(0 -0 -0.0006058097542)
(0 -0 -0.0006331052328)
(0 -0 -0.0006594167192)
(0 -0 -0.0006848156047)
(0 -0 -0.0007093721454)
(0 -0 -0.0007331552412)
(0 -0 -0.0007562322738)
(0 -0 -0.0007786689741)
(0 -0 -0.0008005292951)
(0 -0 -0.0008218752794)
(0 -0 -0.0008427669101)
(0 -0 -0.0008632619374)
(0 -0 -0.000883415671)
(0 -0 -0.0009032807705)
(0 -0 -0.000922907007)
(0 -0 -0.0009423409948)
(0 -0 -0.0009616258978)
(0 -0 0.0001039032084)
(0 -0 0.0001047222279)
(0 -0 0.0001058157613)
(0 -0 0.0001077117752)
(0 -0 0.0001111698571)
(0 -0 0.0001168150436)
(0 -0 0.0001248622161)
(0 -0 0.0001350468256)
(0 -0 0.0001467208437)
(0 -0 0.0001590128327)
(0 -0 0.0001709967324)
(0 -0 0.0001818342759)
(0 -0 0.0001908640436)
(0 -0 0.0001976342698)
(0 -0 0.000201895624)
(0 -0 0.0002035715597)
(0 -0 0.0002027190298)
(0 -0 0.0001994884147)
(0 -0 0.0001940880327)
(0 -0 0.0001867557218)
(0 -0 0.0001777378271)
(0 -0 0.0001672747677)
(0 -0 0.0001555919287)
(0 -0 0.0001428945842)
(0 -0 0.0001293656868)
(0 -0 0.0001151655427)
(0 -0 0.0001004326721)
(0 -0 8.528534844e-05)
(0 -0 6.982345699e-05)
(0 -0 5.413044021e-05)
(0 -0 3.827518829e-05)
(0 -0 2.231379324e-05)
(0 -0 6.291128998e-06)
(0 -0 -9.757752261e-06)
(0 -0 -2.580640286e-05)
(0 -0 -4.183592404e-05)
(0 -0 -5.783406687e-05)
(0 -0 -7.379443015e-05)
(0 -0 -8.971577014e-05)
(0 -0 -0.0001056013946)
(0 -0 -0.0001214586136)
(0 -0 -0.000137298232)
(0 -0 -0.0001531340714)
(0 -0 -0.000168982514)
(0 -0 -0.0001848620589)
(0 -0 -0.000200792883)
(0 -0 -0.000216796398)
(0 -0 -0.000232894805)
(0 -0 -0.0002491106641)
(0 -0 -0.0002654664424)
(0 -0 8.040535223e-05)
(0 -0 8.056326289e-05)
(0 -0 8.078937448e-05)
(0 -0 8.105087201e-05)
(0 -0 8.135900969e-05)
(0 -0 8.180068112e-05)
(0 -0 8.253091838e-05)
(0 -0 8.373434153e-05)
(0 -0 8.557370768e-05)
(0 -0 8.814674305e-05)
(0 -0 9.146451001e-05)
(0 -0 9.54530704e-05)
(0 -0 9.997164993e-05)
(0 -0 0.0001048380644)
(0 -0 0.0001098541759)
(0 -0 0.0001148271676)
(0 -0 0.000119584628)
(0 -0 0.0001239832085)
(0 -0 0.0001279118527)
(0 -0 0.0001312911309)
(0 -0 0.0001340701659)
(0 -0 0.000136222333)
(0 -0 0.0001377405838)
(0 -0 0.0001386329389)
(0 -0 0.0001389184605)
(0 -0 0.0001386238382)
(0 -0 0.0001377806024)
(0 -0 0.0001364229253)
(0 -0 0.0001345859389)
(0 -0 0.0001323044831)
(0 -0 0.0001296122048)
(0 -0 0.0001265409035)
(0 -0 0.0001231201029)
(0 -0 0.0001193767751)
(0 -0 0.0001153351683)
(0 -0 0.0001110166357)
(0 -0 0.0001064393522)
(0 -0 0.0001016192099)
(0 -0 9.656934383e-05)
(0 -0 9.130001556e-05)
(0 -0 8.581865496e-05)
(0 -0 8.012995164e-05)
(0 -0 7.423595158e-05)
(0 -0 6.81361632e-05)
(0 -0 6.182766265e-05)
(0 -0 5.530519014e-05)
(0 -0 4.856158355e-05)
(0 -0 4.158831208e-05)
(0 -0 3.437489917e-05)
(0 -0 2.690932859e-05)
(0 -0 6.381904225e-05)
(0 -0 6.384537625e-05)
(0 -0 6.391895308e-05)
(0 -0 6.404148227e-05)
(0 -0 6.420238588e-05)
(0 -0 6.438567267e-05)
(0 -0 6.457744828e-05)
(0 -0 6.477602624e-05)
(0 -0 6.499793703e-05)
(0 -0 6.527604238e-05)
(0 -0 6.565212863e-05)
(0 -0 6.616807926e-05)
(0 -0 6.685820836e-05)
(0 -0 6.774400152e-05)
(0 -0 6.883179042e-05)
(0 -0 7.011317738e-05)
(0 -0 7.156741604e-05)
(0 -0 7.316476984e-05)
(0 -0 7.487005306e-05)
(0 -0 7.664584013e-05)
(0 -0 7.845507366e-05)
(0 -0 8.026297742e-05)
(0 -0 8.203829879e-05)
(0 -0 8.375397897e-05)
(0 -0 8.53873754e-05)
(0 -0 8.692016711e-05)
(0 -0 8.833805316e-05)
(0 -0 8.9630338e-05)
(0 -0 9.078946127e-05)
(0 -0 9.181051296e-05)
(0 -0 9.26909158e-05)
(0 -0 9.342916492e-05)
(0 -0 9.402558425e-05)
(0 -0 9.448185451e-05)
(0 -0 9.480050605e-05)
(0 -0 9.498466757e-05)
(0 -0 9.503804729e-05)
(0 -0 9.496381336e-05)
(0 -0 9.476491171e-05)
(0 -0 9.444404512e-05)
(0 -0 9.400353841e-05)
(0 -0 9.3445193e-05)
(0 -0 9.277017188e-05)
(0 -0 9.197890478e-05)
(0 -0 9.107100825e-05)
(0 -0 9.004516079e-05)
(0 -0 8.889870714e-05)
(0 -0 8.762742161e-05)
(0 -0 8.622619606e-05)
(0 -0 8.468871231e-05)
(0 -0 5.118230004e-05)
(0 -0 5.112863126e-05)
(0 -0 5.109762398e-05)
(0 -0 5.110032769e-05)
(0 -0 5.113792289e-05)
(0 -0 5.120826927e-05)
(0 -0 5.13063926e-05)
(0 -0 5.142526611e-05)
(0 -0 5.155758834e-05)
(0 -0 5.169759335e-05)
(0 -0 5.184237822e-05)
(0 -0 5.199265157e-05)
(0 -0 5.21527592e-05)
(0 -0 5.232992137e-05)
(0 -0 5.253292605e-05)
(0 -0 5.277069314e-05)
(0 -0 5.305104656e-05)
(0 -0 5.337985769e-05)
(0 -0 5.376059731e-05)
(0 -0 5.419425519e-05)
(0 -0 5.467953918e-05)
(0 -0 5.521324888e-05)
(0 -0 5.579072308e-05)
(0 -0 5.640628594e-05)
(0 -0 5.705364579e-05)
(0 -0 5.772622961e-05)
(0 -0 5.841743645e-05)
(0 -0 5.91209188e-05)
(0 -0 5.9830375e-05)
(0 -0 6.054014557e-05)
(0 -0 6.124511366e-05)
(0 -0 6.194151365e-05)
(0 -0 6.262575843e-05)
(0 -0 6.329456951e-05)
(0 -0 6.394516658e-05)
(0 -0 6.457536217e-05)
(0 -0 6.518379023e-05)
(0 -0 6.576890985e-05)
(0 -0 6.632942394e-05)
(0 -0 6.686440413e-05)
(0 -0 6.737326241e-05)
(0 -0 6.785568938e-05)
(0 -0 6.831160407e-05)
(0 -0 6.874109694e-05)
(0 -0 6.914438025e-05)
(0 -0 6.952181255e-05)
(0 -0 6.987353795e-05)
(0 -0 7.019880684e-05)
(0 -0 7.049668947e-05)
(0 -0 7.076590166e-05)
(0 -0 4.141601289e-05)
(0 -0 4.129620408e-05)
(0 -0 4.118085954e-05)
(0 -0 4.108494261e-05)
(0 -0 4.101186248e-05)
(0 -0 4.09626819e-05)
(0 -0 4.093754284e-05)
(0 -0 4.093565692e-05)
(0 -0 4.095537802e-05)
(0 -0 4.099441286e-05)
(0 -0 4.105009809e-05)
(0 -0 4.111975689e-05)
(0 -0 4.120110747e-05)
(0 -0 4.129260829e-05)
(0 -0 4.139363206e-05)
(0 -0 4.150444246e-05)
(0 -0 4.162602216e-05)
(0 -0 4.175982612e-05)
(0 -0 4.190752361e-05)
(0 -0 4.207077381e-05)
(0 -0 4.225105648e-05)
(0 -0 4.244955716e-05)
(0 -0 4.266710151e-05)
(0 -0 4.29041083e-05)
(0 -0 4.316059336e-05)
(0 -0 4.343608835e-05)
(0 -0 4.37296241e-05)
(0 -0 4.404003741e-05)
(0 -0 4.436619854e-05)
(0 -0 4.470659904e-05)
(0 -0 4.50593883e-05)
(0 -0 4.542338274e-05)
(0 -0 4.579701345e-05)
(0 -0 4.617848178e-05)
(0 -0 4.656599879e-05)
(0 -0 4.695779649e-05)
(0 -0 4.735192942e-05)
(0 -0 4.774720418e-05)
(0 -0 4.814269185e-05)
(0 -0 4.853757342e-05)
(0 -0 4.893114002e-05)
(0 -0 4.932282671e-05)
(0 -0 4.971222466e-05)
(0 -0 5.009907894e-05)
(0 -0 5.048326643e-05)
(0 -0 5.086474883e-05)
(0 -0 5.124383838e-05)
(0 -0 5.162154672e-05)
(0 -0 5.199872411e-05)
(0 -0 5.23760779e-05)
(0 -0 3.365846571e-05)
(0 -0 3.348806331e-05)
(0 -0 3.330963841e-05)
(0 -0 3.31412281e-05)
(0 -0 3.298744366e-05)
(0 -0 3.285031666e-05)
(0 -0 3.273122793e-05)
(0 -0 3.263095644e-05)
(0 -0 3.254969957e-05)
(0 -0 3.248725104e-05)
(0 -0 3.244318086e-05)
(0 -0 3.241694681e-05)
(0 -0 3.240797863e-05)
(0 -0 3.241576526e-05)
(0 -0 3.243991697e-05)
(0 -0 3.248017326e-05)
(0 -0 3.253636418e-05)
(0 -0 3.26083606e-05)
(0 -0 3.269603953e-05)
(0 -0 3.279926849e-05)
(0 -0 3.291790836e-05)
(0 -0 3.305179974e-05)
(0 -0 3.320079809e-05)
(0 -0 3.336458432e-05)
(0 -0 3.354273637e-05)
(0 -0 3.373487242e-05)
(0 -0 3.394062598e-05)
(0 -0 3.415923357e-05)
(0 -0 3.439006097e-05)
(0 -0 3.463220827e-05)
(0 -0 3.488465414e-05)
(0 -0 3.514552452e-05)
(0 -0 3.541329695e-05)
(0 -0 3.568671023e-05)
(0 -0 3.596457908e-05)
(0 -0 3.624576231e-05)
(0 -0 3.652915409e-05)
(0 -0 3.681371245e-05)
(0 -0 3.709848111e-05)
(0 -0 3.738260348e-05)
(0 -0 3.766533577e-05)
(0 -0 3.794606193e-05)
(0 -0 3.822431177e-05)
(0 -0 3.849977913e-05)
(0 -0 3.877232769e-05)
(0 -0 3.904197969e-05)
(0 -0 3.930891018e-05)
(0 -0 3.957343162e-05)
(0 -0 3.983599371e-05)
(0 -0 4.00972515e-05)
(0 -0 2.73629577e-05)
(0 -0 2.715027971e-05)
(0 -0 2.692046689e-05)
(0 -0 2.669428819e-05)
(0 -0 2.647736639e-05)
(0 -0 2.627249716e-05)
(0 -0 2.608191246e-05)
(0 -0 2.590729959e-05)
(0 -0 2.574973444e-05)
(0 -0 2.560985212e-05)
(0 -0 2.548807464e-05)
(0 -0 2.538475481e-05)
(0 -0 2.530024831e-05)
(0 -0 2.523495962e-05)
(0 -0 2.518935245e-05)
(0 -0 2.516390288e-05)
(0 -0 2.515901268e-05)
(0 -0 2.517492566e-05)
(0 -0 2.521168554e-05)
(0 -0 2.526912413e-05)
(0 -0 2.534693498e-05)
(0 -0 2.544452474e-05)
(0 -0 2.556123798e-05)
(0 -0 2.569652835e-05)
(0 -0 2.584972193e-05)
(0 -0 2.601999546e-05)
(0 -0 2.620644622e-05)
(0 -0 2.640790781e-05)
(0 -0 2.662276709e-05)
(0 -0 2.68494365e-05)
(0 -0 2.708636459e-05)
(0 -0 2.733196752e-05)
(0 -0 2.75846418e-05)
(0 -0 2.784279233e-05)
(0 -0 2.810485514e-05)
(0 -0 2.836931378e-05)
(0 -0 2.863471038e-05)
(0 -0 2.88996556e-05)
(0 -0 2.916284154e-05)
(0 -0 2.942306016e-05)
(0 -0 2.967922595e-05)
(0 -0 2.99303973e-05)
(0 -0 3.017579309e-05)
(0 -0 3.041480658e-05)
(0 -0 3.064701626e-05)
(0 -0 3.087218472e-05)
(0 -0 3.109024015e-05)
(0 -0 3.130125037e-05)
(0 -0 3.150541072e-05)
(0 -0 3.170302957e-05)
(0 -0 2.217183761e-05)
(0 -0 2.192140581e-05)
(0 -0 2.164671795e-05)
(0 -0 2.137111724e-05)
(0 -0 2.110112412e-05)
(0 -0 2.084017976e-05)
(0 -0 2.059120216e-05)
(0 -0 2.035659097e-05)
(0 -0 2.013810082e-05)
(0 -0 1.993699789e-05)
(0 -0 1.975430472e-05)
(0 -0 1.959095786e-05)
(0 -0 1.944788242e-05)
(0 -0 1.932603267e-05)
(0 -0 1.922639543e-05)
(0 -0 1.914993195e-05)
(0 -0 1.909747497e-05)
(0 -0 1.906962652e-05)
(0 -0 1.906673082e-05)
(0 -0 1.908870311e-05)
(0 -0 1.913528113e-05)
(0 -0 1.920614082e-05)
(0 -0 1.93006786e-05)
(0 -0 1.941822725e-05)
(0 -0 1.955798843e-05)
(0 -0 1.971879973e-05)
(0 -0 1.989913851e-05)
(0 -0 2.009742644e-05)
(0 -0 2.031195221e-05)
(0 -0 2.054088767e-05)
(0 -0 2.078232153e-05)
(0 -0 2.103428808e-05)
(0 -0 2.129479418e-05)
(0 -0 2.156184645e-05)
(0 -0 2.183347665e-05)
(0 -0 2.210776283e-05)
(0 -0 2.23828458e-05)
(0 -0 2.265694149e-05)
(0 -0 2.292835342e-05)
(0 -0 2.319549047e-05)
(0 -0 2.345689321e-05)
(0 -0 2.371126337e-05)
(0 -0 2.395748627e-05)
(0 -0 2.419464206e-05)
(0 -0 2.442201121e-05)
(0 -0 2.463907533e-05)
(0 -0 2.484550392e-05)
(0 -0 2.504112505e-05)
(0 -0 2.522589549e-05)
(0 -0 2.539988175e-05)
(0 -0 1.783465208e-05)
(0 -0 1.754915258e-05)
(0 -0 1.723351113e-05)
(0 -0 1.691356183e-05)
(0 -0 1.659665396e-05)
(0 -0 1.628679252e-05)
(0 -0 1.59874659e-05)
(0 -0 1.570165178e-05)
(0 -0 1.543165467e-05)
(0 -0 1.517925557e-05)
(0 -0 1.494596881e-05)
(0 -0 1.47332085e-05)
(0 -0 1.454236428e-05)
(0 -0 1.437483993e-05)
(0 -0 1.42320464e-05)
(0 -0 1.411533626e-05)
(0 -0 1.402589445e-05)
(0 -0 1.396451274e-05)
(0 -0 1.393173489e-05)
(0 -0 1.392783577e-05)
(0 -0 1.395266853e-05)
(0 -0 1.400598168e-05)
(0 -0 1.408727476e-05)
(0 -0 1.419561645e-05)
(0 -0 1.432981177e-05)
(0 -0 1.448852962e-05)
(0 -0 1.467021817e-05)
(0 -0 1.487310027e-05)
(0 -0 1.50952012e-05)
(0 -0 1.533438847e-05)
(0 -0 1.558841558e-05)
(0 -0 1.585496356e-05)
(0 -0 1.613167733e-05)
(0 -0 1.641619759e-05)
(0 -0 1.670618755e-05)
(0 -0 1.699935379e-05)
(0 -0 1.729346285e-05)
(0 -0 1.75863574e-05)
(0 -0 1.787597472e-05)
(0 -0 1.81603686e-05)
(0 -0 1.843773647e-05)
(0 -0 1.8706452e-05)
(0 -0 1.896509591e-05)
(0 -0 1.921247427e-05)
(0 -0 1.944762093e-05)
(0 -0 1.966978797e-05)
(0 -0 1.987842647e-05)
(0 -0 2.007315869e-05)
(0 -0 2.025375122e-05)
(0 -0 2.042009697e-05)
(0 -0 1.417219012e-05)
(0 -0 1.385318163e-05)
(0 -0 1.34989392e-05)
(0 -0 1.313774601e-05)
(0 -0 1.277774053e-05)
(0 -0 1.242344028e-05)
(0 -0 1.207883438e-05)
(0 -0 1.174739847e-05)
(0 -0 1.14319059e-05)
(0 -0 1.113457091e-05)
(0 -0 1.085731564e-05)
(0 -0 1.06019522e-05)
(0 -0 1.037026496e-05)
(0 -0 1.016405719e-05)
(0 -0 9.985122497e-06)
(0 -0 9.835100559e-06)
(0 -0 9.715508264e-06)
(0 -0 9.627556883e-06)
(0 -0 9.571943222e-06)
(0 -0 9.549111749e-06)
(0 -0 9.559114008e-06)
(0 -0 9.601506732e-06)
(0 -0 9.675556523e-06)
(0 -0 9.780351925e-06)
(0 -0 9.914728923e-06)
(0 -0 1.007722767e-05)
(0 -0 1.026609497e-05)
(0 -0 1.047931153e-05)
(0 -0 1.071463039e-05)
(0 -0 1.096962422e-05)
(0 -0 1.124173321e-05)
(0 -0 1.152830825e-05)
(0 -0 1.182665017e-05)
(0 -0 1.213404549e-05)
(0 -0 1.244779698e-05)
(0 -0 1.276524741e-05)
(0 -0 1.308379856e-05)
(0 -0 1.340093053e-05)
(0 -0 1.371422558e-05)
(0 -0 1.40213963e-05)
(0 -0 1.432031673e-05)
(0 -0 1.460905654e-05)
(0 -0 1.488591409e-05)
(0 -0 1.514943828e-05)
(0 -0 1.539843183e-05)
(0 -0 1.563193857e-05)
(0 -0 1.584921913e-05)
(0 -0 1.604971842e-05)
(0 -0 1.623303854e-05)
(0 -0 1.639892982e-05)
(0 -0 1.105384181e-05)
(0 -0 1.07021934e-05)
(0 -0 1.031074164e-05)
(0 -0 9.91020727e-06)
(0 -0 9.509501487e-06)
(0 -0 9.113621079e-06)
(0 -0 8.727005195e-06)
(0 -0 8.353567823e-06)
(0 -0 7.996489674e-06)
(0 -0 7.658354322e-06)
(0 -0 7.341427258e-06)
(0 -0 7.047868362e-06)
(0 -0 6.779813227e-06)
(0 -0 6.5394028e-06)
(0 -0 6.328842226e-06)
(0 -0 6.150230285e-06)
(0 -0 6.00529276e-06)
(0 -0 5.895502522e-06)
(0 -0 5.821874008e-06)
(0 -0 5.784800647e-06)
(0 -0 5.784242684e-06)
(0 -0 5.819863568e-06)
(0 -0 5.891003761e-06)
(0 -0 5.996686455e-06)
(0 -0 6.135621011e-06)
(0 -0 6.306189019e-06)
(0 -0 6.506445834e-06)
(0 -0 6.734147346e-06)
(0 -0 6.986792688e-06)
(0 -0 7.261673607e-06)
(0 -0 7.555923846e-06)
(0 -0 7.866565801e-06)
(0 -0 8.190554515e-06)
(0 -0 8.524818921e-06)
(0 -0 8.866298398e-06)
(0 -0 9.211972175e-06)
(0 -0 9.558881755e-06)
(0 -0 9.904151251e-06)
(0 -0 1.024501274e-05)
(0 -0 1.057883999e-05)
(0 -0 1.0903188e-05)
(0 -0 1.121583353e-05)
(0 -0 1.151480949e-05)
(0 -0 1.179842255e-05)
(0 -0 1.206524945e-05)
(0 -0 1.231412267e-05)
(0 -0 1.254411632e-05)
(0 -0 1.275452238e-05)
(0 -0 1.294481268e-05)
(0 -0 1.311461271e-05)
(0 -0 8.382823284e-06)
(0 -0 7.999016252e-06)
(0 -0 7.571206965e-06)
(0 -0 7.132538271e-06)
(0 -0 6.692662436e-06)
(0 -0 6.2570021e-06)
(0 -0 5.83037187e-06)
(0 -0 5.417051285e-06)
(0 -0 5.0205973e-06)
(0 -0 4.643992407e-06)
(0 -0 4.289894852e-06)
(0 -0 3.96084763e-06)
(0 -0 3.659407901e-06)
(0 -0 3.388101079e-06)
(0 -0 3.149339507e-06)
(0 -0 2.945516288e-06)
(0 -0 2.778753824e-06)
(0 -0 2.650615616e-06)
(0 -0 2.562165245e-06)
(0 -0 2.5139927e-06)
(0 -0 2.506193304e-06)
(0 -0 2.538430749e-06)
(0 -0 2.609989083e-06)
(0 -0 2.719796938e-06)
(0 -0 2.866436533e-06)
(0 -0 3.048141114e-06)
(0 -0 3.262799415e-06)
(0 -0 3.507976709e-06)
(0 -0 3.780948968e-06)
(0 -0 4.078745741e-06)
(0 -0 4.398198736e-06)
(0 -0 4.735994143e-06)
(0 -0 5.088727086e-06)
(0 -0 5.452954648e-06)
(0 -0 5.825242365e-06)
(0 -0 6.202200024e-06)
(0 -0 6.580506584e-06)
(0 -0 6.956930618e-06)
(0 -0 7.328357008e-06)
(0 -0 7.691825653e-06)
(0 -0 8.04457704e-06)
(0 -0 8.384095431e-06)
(0 -0 8.708144442e-06)
(0 -0 9.014788441e-06)
(0 -0 9.302389506e-06)
(0 -0 9.56958417e-06)
(0 -0 9.815263709e-06)
(0 -0 1.0038564e-05)
(0 -0 1.023884032e-05)
(0 -0 1.041562468e-05)
(0 -0 6.086640526e-06)
(0 -0 5.670990919e-06)
(0 -0 5.207353341e-06)
(0 -0 4.731174454e-06)
(0 -0 4.252729553e-06)
(0 -0 3.777811988e-06)
(0 -0 3.31160971e-06)
(0 -0 2.858812846e-06)
(0 -0 2.423504378e-06)
(0 -0 2.009383654e-06)
(0 -0 1.619907155e-06)
(0 -0 1.258162122e-06)
(0 -0 9.26838773e-07)
(0 -0 6.284406183e-07)
(0 -0 3.653773966e-07)
(0 -0 1.399464845e-07)
(0 -0 -4.564615789e-08)
(0 -0 -1.895047076e-07)
(0 -0 -2.902473714e-07)
(0 -0 -3.47089387e-07)
(0 -0 -3.598317217e-07)
(0 -0 -3.287886638e-07)
(0 -0 -2.5470905e-07)
(0 -0 -1.387278891e-07)
(0 -0 1.76498838e-08)
(0 -0 2.125468297e-07)
(0 -0 4.437108643e-07)
(0 -0 7.085263296e-07)
(0 -0 1.004041169e-06)
(0 -0 1.327008895e-06)
(0 -0 1.673943378e-06)
(0 -0 2.041183608e-06)
(0 -0 2.424962583e-06)
(0 -0 2.821471226e-06)
(0 -0 3.226909314e-06)
(0 -0 3.637521152e-06)
(0 -0 4.049620039e-06)
(0 -0 4.459610618e-06)
(0 -0 4.864020446e-06)
(0 -0 5.259546568e-06)
(0 -0 5.643109044e-06)
(0 -0 6.011895645e-06)
(0 -0 6.363392982e-06)
(0 -0 6.695410274e-06)
(0 -0 7.006090153e-06)
(0 -0 7.293890384e-06)
(0 -0 7.557545903e-06)
(0 -0 7.796042268e-06)
(0 -0 8.008602572e-06)
(0 -0 8.194664556e-06)
(0 -0 4.11068498e-06)
(0 -0 3.663239951e-06)
(0 -0 3.1631432e-06)
(0 -0 2.647979786e-06)
(0 -0 2.129235939e-06)
(0 -0 1.614302812e-06)
(0 -0 1.109800052e-06)
(0 -0 6.209312719e-07)
(0 -0 1.514222163e-07)
(0 -0 -2.956323909e-07)
(0 -0 -7.169913256e-07)
(0 -0 -1.109228814e-06)
(0 -0 -1.469109753e-06)
(0 -0 -1.793742527e-06)
(0 -0 -2.080414534e-06)
(0 -0 -2.326508524e-06)
(0 -0 -2.529575035e-06)
(0 -0 -2.687527822e-06)
(0 -0 -2.798833794e-06)
(0 -0 -2.862601289e-06)
(0 -0 -2.878560525e-06)
(0 -0 -2.846985652e-06)
(0 -0 -2.768616293e-06)
(0 -0 -2.644615149e-06)
(0 -0 -2.476563318e-06)
(0 -0 -2.266472107e-06)
(0 -0 -2.016786055e-06)
(0 -0 -1.730362533e-06)
(0 -0 -1.41042887e-06)
(0 -0 -1.060525213e-06)
(0 -0 -6.844396384e-07)
(0 -0 -2.861395281e-07)
(0 -0 1.302957808e-07)
(0 -0 5.607337378e-07)
(0 -0 1.001033484e-06)
(0 -0 1.44707943e-06)
(0 -0 1.894811706e-06)
(0 -0 2.340259977e-06)
(0 -0 2.779584106e-06)
(0 -0 3.209125213e-06)
(0 -0 3.625465435e-06)
(0 -0 4.025482071e-06)
(0 -0 4.406381343e-06)
(0 -0 4.765715852e-06)
(0 -0 5.101396157e-06)
(0 -0 5.411686046e-06)
(0 -0 5.695168787e-06)
(0 -0 5.950703384e-06)
(0 -0 6.177395878e-06)
(0 -0 6.374582053e-06)
(0 -0 2.412080885e-06)
(0 -0 1.929152099e-06)
(0 -0 1.389828318e-06)
(0 -0 8.368544126e-07)
(0 -0 2.825236121e-07)
(0 -0 -2.671031623e-07)
(0 -0 -8.062853279e-07)
(0 -0 -1.329611019e-06)
(0 -0 -1.832752924e-06)
(0 -0 -2.312266301e-06)
(0 -0 -2.7649094e-06)
(0 -0 -3.18725869e-06)
(0 -0 -3.575752945e-06)
(0 -0 -3.926866107e-06)
(0 -0 -4.237218873e-06)
(0 -0 -4.503679359e-06)
(0 -0 -4.7235002e-06)
(0 -0 -4.894467426e-06)
(0 -0 -5.015004395e-06)
(0 -0 -5.084198186e-06)
(0 -0 -5.101757241e-06)
(0 -0 -5.06793658e-06)
(0 -0 -4.983475513e-06)
(0 -0 -4.849575736e-06)
(0 -0 -4.667914745e-06)
(0 -0 -4.440666187e-06)
(0 -0 -4.170497794e-06)
(0 -0 -3.860534652e-06)
(0 -0 -3.514295814e-06)
(0 -0 -3.135620591e-06)
(0 -0 -2.728596222e-06)
(0 -0 -2.297490861e-06)
(0 -0 -1.846692567e-06)
(0 -0 -1.380656544e-06)
(0 -0 -9.038630461e-07)
(0 -0 -4.207826112e-07)
(0 -0 6.416059959e-08)
(0 -0 5.466330295e-07)
(0 -0 1.022440898e-06)
(0 -0 1.487581922e-06)
(0 -0 1.938303425e-06)
(0 -0 2.371164064e-06)
(0 -0 2.783081018e-06)
(0 -0 3.171350808e-06)
(0 -0 3.533653723e-06)
(0 -0 3.868048723e-06)
(0 -0 4.17294767e-06)
(0 -0 4.447073561e-06)
(0 -0 4.689426874e-06)
(0 -0 4.899263458e-06)
(0 -0 9.478452e-07)
(0 -0 4.352652008e-07)
(0 -0 -1.351583364e-07)
(0 -0 -7.210783917e-07)
(0 -0 -1.309720483e-06)
(0 -0 -1.894574368e-06)
(0 -0 -2.469923911e-06)
(0 -0 -3.029956281e-06)
(0 -0 -3.569300345e-06)
(0 -0 -4.083380789e-06)
(0 -0 -4.568248118e-06)
(0 -0 -5.020250849e-06)
(0 -0 -5.435815362e-06)
(0 -0 -5.811358107e-06)
(0 -0 -6.143318849e-06)
(0 -0 -6.428309977e-06)
(0 -0 -6.663328638e-06)
(0 -0 -6.84595147e-06)
(0 -0 -6.974451848e-06)
(0 -0 -7.047820385e-06)
(0 -0 -7.065711015e-06)
(0 -0 -7.028357884e-06)
(0 -0 -6.936511213e-06)
(0 -0 -6.791419842e-06)
(0 -0 -6.594851619e-06)
(0 -0 -6.34911829e-06)
(0 -0 -6.057073557e-06)
(0 -0 -5.72207268e-06)
(0 -0 -5.347902513e-06)
(0 -0 -4.938699639e-06)
(0 -0 -4.498871082e-06)
(0 -0 -4.033023811e-06)
(0 -0 -3.545902471e-06)
(0 -0 -3.042332967e-06)
(0 -0 -2.527171994e-06)
(0 -0 -2.005263582e-06)
(0 -0 -1.481398699e-06)
(0 -0 -9.602697351e-07)
(0 -0 -4.464172565e-07)
(0 -0 5.582571857e-08)
(0 -0 5.423904879e-07)
(0 -0 1.009533203e-06)
(0 -0 1.453888884e-06)
(0 -0 1.872500029e-06)
(0 -0 2.262820334e-06)
(0 -0 2.622707707e-06)
(0 -0 2.950402641e-06)
(0 -0 3.244487536e-06)
(0 -0 3.503848963e-06)
(0 -0 3.727656853e-06)
(0 -0 -2.869421162e-07)
(0 -0 -8.280348313e-07)
(0 -0 -1.430999953e-06)
(0 -0 -2.053070637e-06)
(0 -0 -2.680495127e-06)
(0 -0 -3.304504882e-06)
(0 -0 -3.917644551e-06)
(0 -0 -4.513611425e-06)
(0 -0 -5.087165283e-06)
(0 -0 -5.633786377e-06)
(0 -0 -6.149330961e-06)
(0 -0 -6.629843752e-06)
(0 -0 -7.071469173e-06)
(0 -0 -7.470391573e-06)
(0 -0 -7.822841779e-06)
(0 -0 -8.125219988e-06)
(0 -0 -8.374309556e-06)
(0 -0 -8.56749121e-06)
(0 -0 -8.702879887e-06)
(0 -0 -8.779355445e-06)
(0 -0 -8.796508392e-06)
(0 -0 -8.754551826e-06)
(0 -0 -8.654252823e-06)
(0 -0 -8.496912552e-06)
(0 -0 -8.284386703e-06)
(0 -0 -8.019112195e-06)
(0 -0 -7.704107088e-06)
(0 -0 -7.342930788e-06)
(0 -0 -6.939612582e-06)
(0 -0 -6.498566172e-06)
(0 -0 -6.024506331e-06)
(0 -0 -5.522376307e-06)
(0 -0 -4.997285184e-06)
(0 -0 -4.454448367e-06)
(0 -0 -3.899127108e-06)
(0 -0 -3.336571121e-06)
(0 -0 -2.771968688e-06)
(0 -0 -2.210398281e-06)
(0 -0 -1.656772278e-06)
(0 -0 -1.115774322e-06)
(0 -0 -5.91798023e-07)
(0 -0 -8.888652154e-08)
(0 -0 3.893244087e-07)
(0 -0 8.39638453e-07)
(0 -0 1.259295537e-06)
(0 -0 1.645955172e-06)
(0 -0 1.997682299e-06)
(0 -0 2.31292394e-06)
(0 -0 2.590474125e-06)
(0 -0 2.829439342e-06)
(0 -0 -1.31152208e-06)
(0 -0 -1.887103714e-06)
(0 -0 -2.529620453e-06)
(0 -0 -3.190448614e-06)
(0 -0 -3.855124435e-06)
(0 -0 -4.515566471e-06)
(0 -0 -5.164448133e-06)
(0 -0 -5.795154629e-06)
(0 -0 -6.402104236e-06)
(0 -0 -6.980498133e-06)
(0 -0 -7.525928022e-06)
(0 -0 -8.034162441e-06)
(0 -0 -8.501073932e-06)
(0 -0 -8.922595851e-06)
(0 -0 -9.294727294e-06)
(0 -0 -9.613647682e-06)
(0 -0 -9.875930404e-06)
(0 -0 -1.007876803e-05)
(0 -0 -1.022012265e-05)
(0 -0 -1.029876581e-05)
(0 -0 -1.031422589e-05)
(0 -0 -1.026669657e-05)
(0 -0 -1.015696327e-05)
(0 -0 -9.986379704e-06)
(0 -0 -9.756888619e-06)
(0 -0 -9.471051652e-06)
(0 -0 -9.132050954e-06)
(0 -0 -8.743647258e-06)
(0 -0 -8.310104309e-06)
(0 -0 -7.836100702e-06)
(0 -0 -7.326645951e-06)
(0 -0 -6.787007076e-06)
(0 -0 -6.222643738e-06)
(0 -0 -5.639146154e-06)
(0 -0 -5.042171302e-06)
(0 -0 -4.437378978e-06)
(0 -0 -3.830372879e-06)
(0 -0 -3.22664469e-06)
(0 -0 -2.63151072e-06)
(0 -0 -2.050038011e-06)
(0 -0 -1.486972335e-06)
(0 -0 -9.46676496e-07)
(0 -0 -4.330750583e-07)
(0 -0 5.038378109e-08)
(0 -0 5.007278316e-07)
(0 -0 9.154333513e-07)
(0 -0 1.292402476e-06)
(0 -0 1.62994979e-06)
(0 -0 1.926782826e-06)
(0 -0 2.181969046e-06)
(0 -0 -2.160675976e-06)
(0 -0 -2.768192729e-06)
(0 -0 -3.445703583e-06)
(0 -0 -4.142537317e-06)
(0 -0 -4.843467773e-06)
(0 -0 -5.539859644e-06)
(0 -0 -6.223989359e-06)
(0 -0 -6.888891934e-06)
(0 -0 -7.528663274e-06)
(0 -0 -8.138215792e-06)
(0 -0 -8.712868128e-06)
(0 -0 -9.248120473e-06)
(0 -0 -9.739585969e-06)
(0 -0 -1.01829544e-05)
(0 -0 -1.05739943e-05)
(0 -0 -1.090866453e-05)
(0 -0 -1.118333006e-05)
(0 -0 -1.139499749e-05)
(0 -0 -1.154147837e-05)
(0 -0 -1.162143797e-05)
(0 -0 -1.163434421e-05)
(0 -0 -1.158037119e-05)
(0 -0 -1.146031951e-05)
(0 -0 -1.127559072e-05)
(0 -0 -1.102821104e-05)
(0 -0 -1.072086576e-05)
(0 -0 -1.035690135e-05)
(0 -0 -9.940278904e-06)
(0 -0 -9.475492833e-06)
(0 -0 -8.967481435e-06)
(0 -0 -8.421545287e-06)
(0 -0 -7.843273064e-06)
(0 -0 -7.238469896e-06)
(0 -0 -6.613088504e-06)
(0 -0 -5.97316467e-06)
(0 -0 -5.324755007e-06)
(0 -0 -4.673875383e-06)
(0 -0 -4.026438988e-06)
(0 -0 -3.38818563e-06)
(0 -0 -2.764593529e-06)
(0 -0 -2.160787191e-06)
(0 -0 -1.581467823e-06)
(0 -0 -1.030868995e-06)
(0 -0 -5.127244679e-07)
(0 -0 -3.025472641e-08)
(0 -0 4.138213088e-07)
(0 -0 8.172628703e-07)
(0 -0 1.178284018e-06)
(0 -0 1.495524846e-06)
(0 -0 1.768013696e-06)
(0 -0 -2.83684474e-06)
(0 -0 -3.475856553e-06)
(0 -0 -4.188117441e-06)
(0 -0 -4.920615874e-06)
(0 -0 -5.657350796e-06)
(0 -0 -6.389204438e-06)
(0 -0 -7.10805293e-06)
(0 -0 -7.806573965e-06)
(0 -0 -8.478546414e-06)
(0 -0 -9.118598186e-06)
(0 -0 -9.721777509e-06)
(0 -0 -1.028332222e-05)
(0 -0 -1.079859508e-05)
(0 -0 -1.126304999e-05)
(0 -0 -1.167223057e-05)
(0 -0 -1.202187777e-05)
(0 -0 -1.230814963e-05)
(0 -0 -1.252786839e-05)
(0 -0 -1.267869745e-05)
(0 -0 -1.27591983e-05)
(0 -0 -1.276877903e-05)
(0 -0 -1.270759141e-05)
(0 -0 -1.257644597e-05)
(0 -0 -1.237678707e-05)
(0 -0 -1.211072069e-05)
(0 -0 -1.178105121e-05)
(0 -0 -1.139128252e-05)
(0 -0 -1.094556822e-05)
(0 -0 -1.044862785e-05)
(0 -0 -9.905656912e-06)
(0 -0 -9.322245199e-06)
(0 -0 -8.704299941e-06)
(0 -0 -8.057967835e-06)
(0 -0 -7.389559837e-06)
(0 -0 -6.705485415e-06)
(0 -0 -6.012192898e-06)
(0 -0 -5.316106509e-06)
(0 -0 -4.623557276e-06)
(0 -0 -3.940706095e-06)
(0 -0 -3.273449937e-06)
(0 -0 -2.627315454e-06)
(0 -0 -2.007372611e-06)
(0 -0 -1.418189148e-06)
(0 -0 -8.638081619e-07)
(0 -0 -3.477283129e-07)
(0 -0 1.270998234e-07)
(0 -0 5.582669697e-07)
(0 -0 9.43898541e-07)
(0 -0 1.282618635e-06)
(0 -0 1.573472557e-06)
(0 -0 -3.350284414e-06)
(0 -0 -4.020325872e-06)
(0 -0 -4.766881012e-06)
(0 -0 -5.534539348e-06)
(0 -0 -6.306509586e-06)
(0 -0 -7.073212077e-06)
(0 -0 -7.826129068e-06)
(0 -0 -8.557583831e-06)
(0 -0 -9.261043517e-06)
(0 -0 -9.930855019e-06)
(0 -0 -1.056180054e-05)
(0 -0 -1.114886156e-05)
(0 -0 -1.168715849e-05)
(0 -0 -1.217191655e-05)
(0 -0 -1.259845975e-05)
(0 -0 -1.296231435e-05)
(0 -0 -1.325943387e-05)
(0 -0 -1.348645977e-05)
(0 -0 -1.364091156e-05)
(0 -0 -1.372124954e-05)
(0 -0 -1.372682071e-05)
(0 -0 -1.365775007e-05)
(0 -0 -1.351485325e-05)
(0 -0 -1.329961381e-05)
(0 -0 -1.301421323e-05)
(0 -0 -1.266156649e-05)
(0 -0 -1.224532163e-05)
(0 -0 -1.17698118e-05)
(0 -0 -1.123997451e-05)
(0 -0 -1.066126007e-05)
(0 -0 -1.003954321e-05)
(0 -0 -9.38104038e-06)
(0 -0 -8.692229849e-06)
(0 -0 -7.979775482e-06)
(0 -0 -7.250459579e-06)
(0 -0 -6.511123637e-06)
(0 -0 -5.768603816e-06)
(0 -0 -5.029651236e-06)
(0 -0 -4.300842231e-06)
(0 -0 -3.588483487e-06)
(0 -0 -2.898508975e-06)
(0 -0 -2.236383706e-06)
(0 -0 -1.607043019e-06)
(0 -0 -1.014865988e-06)
(0 -0 -4.636554167e-07)
(0 -0 4.333568068e-08)
(0 -0 5.034639236e-07)
(0 -0 9.146601818e-07)
(0 -0 1.27543394e-06)
(0 -0 1.585088423e-06)
(0 -0 -3.709745169e-06)
(0 -0 -4.410241136e-06)
(0 -0 -5.190456601e-06)
(0 -0 -5.992591448e-06)
(0 -0 -6.799069229e-06)