/*--------------------------------*- C++ -*----------------------------------*\
| =========                 |                                                 |
| \\      /  F ield         | foam-extend: Open Source CFD                    |
|  \\    /   O peration     | Version:     4.1                                |
|   \\  /    A nd           | Web:         http://www.foam-extend.org         |
|    \\/     M anipulation  |                                                 |
\*---------------------------------------------------------------------------*/
FoamFile
{
    version     2.0;
    format      ascii;
    class       volScalarField;
    location    "500000";
    object      p;
}
// * * * * * * * * * * * * * * * * * * * * * * * * * * * * * * * * * * * * * //

dimensions      [0 2 -2 0 0 0 0];

internalField   nonuniform List<scalar> 
15920
(
3.326561517e-08
3.031224715e-08
2.803563716e-08
2.685981206e-08
2.600220992e-08
2.511596631e-08
2.425355772e-08
2.349448748e-08
2.284108054e-08
2.227060183e-08
2.177154152e-08
2.134013814e-08
2.09710411e-08
2.065593475e-08
2.038569342e-08
2.015170077e-08
1.994610058e-08
1.976184886e-08
1.959283288e-08
1.943394895e-08
1.928107766e-08
1.913099018e-08
1.89812292e-08
1.882998609e-08
1.867598115e-08
1.851835786e-08
1.835659049e-08
1.819040502e-08
1.80197138e-08
1.78445636e-08
1.766509497e-08
1.748150837e-08
1.729405821e-08
1.710302631e-08
1.690869551e-08
1.671135852e-08
1.651131598e-08
1.630887418e-08
1.610434606e-08
1.589805278e-08
1.569032485e-08
1.548150248e-08
1.527193571e-08
1.506198428e-08
1.485201543e-08
1.464239368e-08
1.443351471e-08
1.422578293e-08
1.401960468e-08
1.38153877e-08
2.7866256e-08
2.747403728e-08
2.684957018e-08
2.625981086e-08
2.568578773e-08
2.504750679e-08
2.437323734e-08
2.371879537e-08
2.310955924e-08
2.255139504e-08
2.204778856e-08
2.160177159e-08
2.12125297e-08
2.087512942e-08
2.058239129e-08
2.032666183e-08
2.010060197e-08
1.989746309e-08
1.97112683e-08
1.953693717e-08
1.937030627e-08
1.920806438e-08
1.904764911e-08
1.888713793e-08
1.872511373e-08
1.856057542e-08
1.839285938e-08
1.822156337e-08
1.804648222e-08
1.78675566e-08
1.768483197e-08
1.749842113e-08
1.730847161e-08
1.71152057e-08
1.691889548e-08
1.671980899e-08
1.651821313e-08
1.631438561e-08
1.610861652e-08
1.590120615e-08
1.569246476e-08
1.548271427e-08
1.527229064e-08
1.506154854e-08
1.48508758e-08
1.464069199e-08
1.443136733e-08
1.422328336e-08
1.401684653e-08
1.381247187e-08
2.745219224e-08
2.719568206e-08
2.665198605e-08
2.601701223e-08
2.54158392e-08
2.483794184e-08
2.426166162e-08
2.370111357e-08
2.317469839e-08
2.268839132e-08
2.22419499e-08
2.18351043e-08
2.14672712e-08
2.113607022e-08
2.08377991e-08
2.056828265e-08
2.032328545e-08
2.009861981e-08
1.98902542e-08
1.969445903e-08
1.95079165e-08
1.932776532e-08
1.915159909e-08
1.897744302e-08
1.880375137e-08
1.862933851e-08
1.845330953e-08
1.82750142e-08
1.809400784e-08
1.79100129e-08
1.77228839e-08
1.753257849e-08
1.733913875e-08
1.714268195e-08
1.694337477e-08
1.674140924e-08
1.653700097e-08
1.633039226e-08
1.612184985e-08
1.591166143e-08
1.570013457e-08
1.548759757e-08
1.527439981e-08
1.50609118e-08
1.484752464e-08
1.463463849e-08
1.442265109e-08
1.421197399e-08
1.400303455e-08
1.3796266e-08
2.640746855e-08
2.618385026e-08
2.581579078e-08
2.539375729e-08
2.496322927e-08
2.452443697e-08
2.407225072e-08
2.361760791e-08
2.317625922e-08
2.275688453e-08
2.236220118e-08
2.199347024e-08
2.16515532e-08
2.133613099e-08
2.104560717e-08
2.077760273e-08
2.052936211e-08
2.029796438e-08
2.008046362e-08
1.987402652e-08
1.967604539e-08
1.948420325e-08
1.92964988e-08
1.911124768e-08
1.892706986e-08
1.874285467e-08
1.855772489e-08
1.837100847e-08
1.818221172e-08
1.799099124e-08
1.779712768e-08
1.76005033e-08
1.740108378e-08
1.719890395e-08
1.699405591e-08
1.678667769e-08
1.657694591e-08
1.636507212e-08
1.615130002e-08
1.593590302e-08
1.571918223e-08
1.550146676e-08
1.52831114e-08
1.506449207e-08
1.484600755e-08
1.462807344e-08
1.441112091e-08
1.419559504e-08
1.398195342e-08
1.377065935e-08
2.578964765e-08
2.564084551e-08
2.538297882e-08
2.506358181e-08
2.471140736e-08
2.433809634e-08
2.395029276e-08
2.35574521e-08
2.317010441e-08
2.279556343e-08
2.243752935e-08
2.209798517e-08
2.177814596e-08
2.147830498e-08
2.119771897e-08
2.093488902e-08
2.068790948e-08
2.04546846e-08
2.023305096e-08
2.002087593e-08
1.981614251e-08
1.961700728e-08
1.942182968e-08
1.922918141e-08
1.903784412e-08
1.884679874e-08
1.865520952e-08
1.846240642e-08
1.826786703e-08
1.807119818e-08
1.787211872e-08
1.767044422e-08
1.746607393e-08
1.725898012e-08
1.704919898e-08
1.683682208e-08
1.662198934e-08
1.640488427e-08
1.618573113e-08
1.596479301e-08
1.574236838e-08
1.551879122e-08
1.529443685e-08
1.506971223e-08
1.484503267e-08
1.462084543e-08
1.439762823e-08
1.417587246e-08
1.395607896e-08
1.373875664e-08
2.530377846e-08
2.517267145e-08
2.49582338e-08
2.469877959e-08
2.441059508e-08
2.410047659e-08
2.377479068e-08
2.34411543e-08
2.310707267e-08
2.277837233e-08
2.245885876e-08
2.215094044e-08
2.185615569e-08
2.157525811e-08
2.130821369e-08
2.10543538e-08
2.081259535e-08
2.058160651e-08
2.035991171e-08
2.014597492e-08
1.993827397e-08
1.973535927e-08
1.953589221e-08
1.933866685e-08
1.914262067e-08
1.894683683e-08
1.875053968e-08
1.855308573e-08
1.835395308e-08
1.815273077e-08
1.79491081e-08
1.77428645e-08
1.753386033e-08
1.732202902e-08
1.710736993e-08
1.688994172e-08
1.666985759e-08
1.644728261e-08
1.622243155e-08
1.599556514e-08
1.576698445e-08
1.553703329e-08
1.530610061e-08
1.507463196e-08
1.484306677e-08
1.461188413e-08
1.438160869e-08
1.415278316e-08
1.392596285e-08
1.370171341e-08
2.492159519e-08
2.480342661e-08
2.462194362e-08
2.440980794e-08
2.417303108e-08
2.391282435e-08
2.363466924e-08
2.334597459e-08
2.305313038e-08
2.276088821e-08
2.247270773e-08
2.219110165e-08
2.191781463e-08
2.165388907e-08
2.139971979e-08
2.115516262e-08
2.091967449e-08
2.069243677e-08
2.04724488e-08
2.0258604e-08
2.004975563e-08
1.984477047e-08
1.964256753e-08
1.944214365e-08
1.924258904e-08
1.904309538e-08
1.884295803e-08
1.86415741e-08
1.843843855e-08
1.8233139e-08
1.802534991e-08
1.781482667e-08
1.760139985e-08
1.738497023e-08
1.716550579e-08
1.694303882e-08
1.67176558e-08
1.648949941e-08
1.625877424e-08
1.60257367e-08
1.579069462e-08
1.55540074e-08
1.53160807e-08
1.507735013e-08
1.483833176e-08
1.459957157e-08
1.436163047e-08
1.412510056e-08
1.389059916e-08
1.365875805e-08
2.461852554e-08
2.45093194e-08
2.434938994e-08
2.416856633e-08
2.396741128e-08
2.374371315e-08
2.350189588e-08
2.324881656e-08
2.298985583e-08
2.272869426e-08
2.246817024e-08
2.221060612e-08
2.195775258e-08
2.171075326e-08
2.147020751e-08
2.12362702e-08
2.100874891e-08
2.078718866e-08
2.057094499e-08
2.035924745e-08
2.015125467e-08
1.994609962e-08
1.974292495e-08
1.954090869e-08
1.933928219e-08
1.913734182e-08
1.893445571e-08
1.87300672e-08
1.852369593e-08
1.831493719e-08
1.810346011e-08
1.788900555e-08
1.767138394e-08
1.745047198e-08
1.722620888e-08
1.699860978e-08
1.676774746e-08
1.653375088e-08
1.629680888e-08
1.605717615e-08
1.581517254e-08
1.557117534e-08
1.532561067e-08
1.507895819e-08
1.483176864e-08
1.458463285e-08
1.433817329e-08
1.409304983e-08
1.384995275e-08
1.360959119e-08
2.437543882e-08
2.427216673e-08
2.412686058e-08
2.396816814e-08
2.379358574e-08
2.359848124e-08
2.338596925e-08
2.316204004e-08
2.293119227e-08
2.269628648e-08
2.245961302e-08
2.222323566e-08
2.198882253e-08
2.175753328e-08
2.153006858e-08
2.130676335e-08
2.108765814e-08
2.087255417e-08
2.066106605e-08
2.045267297e-08
2.024676471e-08
2.004268023e-08
1.983973911e-08
1.963726616e-08
1.943461015e-08
1.923115739e-08
1.902634134e-08
1.881964919e-08
1.861062625e-08
1.839887855e-08
1.818407428e-08
1.796594341e-08
1.774427754e-08
1.751894286e-08
1.728986363e-08
1.705701754e-08
1.682045621e-08
1.658030272e-08
1.633674491e-08
1.609003901e-08
1.584051162e-08
1.558855574e-08
1.533463087e-08
1.507926439e-08
1.482304438e-08
1.45666177e-08
1.43106813e-08
1.40559753e-08
1.380327479e-08
1.355337953e-08
2.417967765e-08
2.408069565e-08
2.394603277e-08
2.380371716e-08
2.364926629e-08
2.347633691e-08
2.328696682e-08
2.308639962e-08
2.28784588e-08
2.266538798e-08
2.244900688e-08
2.22310874e-08
2.201314653e-08
2.179628838e-08
2.158123322e-08
2.13684002e-08
2.115796222e-08
2.094988121e-08
2.074394463e-08
2.053980578e-08
2.033702162e-08
2.013508518e-08
1.993345224e-08
1.973156336e-08
1.952886161e-08
1.932480675e-08
1.911888632e-08
1.891062412e-08
1.869958717e-08
1.848538893e-08
1.826769484e-08
1.804622741e-08
1.782076636e-08
1.759114308e-08
1.735725846e-08
1.711907718e-08
1.68766357e-08
1.663004386e-08
1.637948362e-08
1.612521226e-08
1.586756571e-08
1.560695891e-08
1.534388572e-08
1.507891741e-08
1.481269862e-08
1.454594459e-08
1.427943334e-08
1.401399677e-08
1.375051079e-08
1.348988356e-08
2.402217682e-08
2.392640318e-08
2.379968671e-08
2.36696856e-08
2.353060972e-08
2.337496902e-08
2.320402313e-08
2.302241354e-08
2.28334037e-08
2.263872262e-08
2.243977384e-08
2.223803764e-08
2.203484997e-08
2.183121785e-08
2.162782993e-08
2.142512821e-08
2.122335154e-08
2.102255718e-08
2.082264478e-08
2.062338677e-08
2.042445879e-08
2.022546608e-08
2.002596553e-08
1.982548467e-08
1.962353827e-08
1.941964169e-08
1.921332284e-08
1.900412997e-08
1.879164344e-08
1.857548259e-08
1.835530324e-08
1.813080726e-08
1.790175108e-08
1.766794701e-08
1.742927098e-08
1.718566624e-08
1.693714749e-08
1.668380616e-08
1.642581488e-08
1.616343138e-08
1.589700222e-08
1.56269651e-08
1.53538499e-08
1.50782782e-08
1.480096042e-08
1.452269098e-08
1.424434097e-08
1.396684914e-08
1.369121077e-08
1.341846353e-08
2.389615079e-08
2.380283013e-08
2.368219322e-08
2.356167562e-08
2.343459317e-08
2.329266668e-08
2.313658731e-08
2.29705144e-08
2.279724932e-08
2.261809807e-08
2.243411591e-08
2.224652291e-08
2.205647514e-08
2.186486521e-08
2.167232109e-08
2.147926926e-08
2.12859698e-08
2.109252827e-08
2.089891014e-08
2.070496317e-08
2.051044117e-08
2.03150252e-08
2.011834178e-08
1.991997775e-08
1.971949638e-08
1.951645018e-08
1.931039117e-08
1.910088747e-08
1.888751844e-08
1.866988784e-08
1.844763713e-08
1.82204475e-08
1.798804695e-08
1.775021736e-08
1.750680174e-08
1.725771131e-08
1.700293232e-08
1.674253369e-08
1.647667381e-08
1.620560656e-08
1.59296868e-08
1.564937459e-08
1.536523786e-08
1.507795309e-08
1.478830365e-08
1.449717506e-08
1.420554726e-08
1.391448432e-08
1.362512174e-08
1.333865042e-08
2.379641058e-08
2.370501051e-08
2.358913588e-08
2.34760823e-08
2.335852636e-08
2.322762844e-08
2.30836665e-08
2.293042929e-08
2.277035132e-08
2.260439817e-08
2.243333745e-08
2.225816229e-08
2.207985872e-08
2.189919886e-08
2.17167332e-08
2.1532848e-08
2.134779393e-08
2.116169093e-08
2.097453556e-08
2.078621712e-08
2.059653577e-08
2.040521778e-08
2.021193309e-08
2.0016308e-08
1.981792959e-08
1.96163755e-08
1.941120771e-08
1.92019844e-08
1.89882763e-08
1.876967132e-08
1.854578333e-08
1.831625942e-08
1.808078836e-08
1.783910975e-08
1.759102331e-08
1.733639832e-08
1.707518317e-08
1.680741493e-08
1.653322879e-08
1.625286705e-08
1.596668746e-08
1.567516987e-08
1.537892077e-08
1.507867547e-08
1.477529786e-08
1.446977672e-08
1.416321794e-08
1.385683285e-08
1.355192296e-08
1.324986115e-08
2.371889602e-08
2.36290321e-08
2.351696629e-08
2.340990259e-08
2.330004623e-08
2.317815164e-08
2.304419705e-08
2.290169079e-08
2.275277906e-08
2.259815327e-08
2.243834274e-08
2.227414518e-08
2.210639194e-08
2.193573797e-08
2.176265036e-08
2.158746184e-08
2.141039488e-08
2.123156146e-08
2.105096462e-08
2.086850927e-08
2.068401864e-08
2.049724363e-08
2.030786701e-08
2.011554082e-08
1.99198706e-08
1.972041877e-08
1.951674141e-08
1.930838808e-08
1.909490665e-08
1.887585203e-08
1.865079651e-08
1.841933953e-08
1.818111752e-08
1.79358144e-08
1.768317279e-08
1.742300583e-08
1.715520947e-08
1.687977503e-08
1.65968019e-08
1.630650983e-08
1.600925044e-08
1.570551716e-08
1.539595281e-08
1.508135425e-08
1.476267376e-08
1.444101649e-08
1.411763295e-08
1.379390627e-08
1.347133448e-08
1.315150784e-08
2.36603638e-08
2.357175328e-08
2.346279418e-08
2.336062967e-08
2.325710812e-08
2.314268338e-08
2.301711413e-08
2.288369675e-08
2.274435184e-08
2.259955102e-08
2.244962807e-08
2.22952152e-08
2.213700762e-08
2.197555157e-08
2.181123119e-08
2.164431975e-08
2.147500055e-08
2.130336276e-08
2.112939957e-08
2.09530127e-08
2.077402372e-08
2.059220002e-08
2.040723528e-08
2.021875342e-08
2.002635361e-08
1.982960307e-08
1.962803857e-08
1.942117648e-08
1.920852443e-08
1.898959014e-08
1.87638907e-08
1.853096309e-08
1.82903754e-08
1.804173884e-08
1.778472103e-08
1.751906039e-08
1.724458162e-08
1.696121186e-08
1.666899725e-08
1.636811908e-08
1.605890922e-08
1.574186441e-08
1.541765808e-08
1.508714867e-08
1.475138363e-08
1.441159853e-08
1.406921004e-08
1.372580192e-08
1.338310444e-08
1.304296752e-08
2.361817145e-08
2.353060428e-08
2.342422882e-08
2.332614739e-08
2.322793118e-08
2.311980684e-08
2.300137133e-08
2.287576119e-08
2.274472115e-08
2.260854728e-08
2.246741384e-08
2.232181436e-08
2.217232617e-08
2.201939753e-08
2.186333381e-08
2.170434763e-08
2.15425778e-08
2.137808069e-08
2.121082693e-08
2.104071201e-08
2.086754982e-08
2.069107316e-08
2.051096805e-08
2.032686266e-08
2.013833502e-08
1.994492243e-08
1.974612532e-08
1.954141633e-08
1.933025056e-08
1.911207387e-08
1.888633212e-08
1.865248236e-08
1.841000515e-08
1.815841836e-08
1.789729271e-08
1.7626269e-08
1.734507695e-08
1.705355537e-08
1.675167321e-08
1.643955078e-08
1.61174806e-08
1.578594706e-08
1.544564394e-08
1.509748776e-08
1.474262577e-08
1.438243771e-08
1.401853018e-08
1.36527219e-08
1.32870193e-08
1.292358383e-08
2.359012337e-08
2.350344332e-08
2.33992576e-08
2.330464197e-08
2.321094917e-08
2.310823031e-08
2.299596204e-08
2.287716028e-08
2.275343313e-08
2.262493678e-08
2.249171604e-08
2.235414938e-08
2.221271349e-08
2.20677698e-08
2.191955173e-08
2.176821288e-08
2.161384615e-08
2.145647529e-08
2.129604395e-08
2.113241302e-08
2.096537512e-08
2.079465388e-08
2.061991288e-08
2.044075572e-08
2.025672806e-08
2.006732633e-08
1.987200433e-08
1.967017918e-08
1.946123915e-08
1.924455216e-08
1.901947529e-08
1.878536611e-08
1.854159601e-08
1.828756563e-08
1.802272269e-08
1.774658222e-08
1.745874899e-08
1.715894221e-08
1.684702216e-08
1.652301787e-08
1.618715479e-08
1.58398817e-08
1.548189545e-08
1.511416174e-08
1.473792925e-08
1.435473543e-08
1.396640286e-08
1.357502455e-08
1.318293622e-08
1.279267599e-08
2.357436039e-08
2.348845394e-08
2.338616727e-08
2.329455202e-08
2.320478399e-08
2.310677818e-08
2.299992516e-08
2.288715288e-08
2.276996234e-08
2.264839653e-08
2.252239488e-08
2.239224194e-08
2.225833127e-08
2.212094749e-08
2.19802597e-08
2.183636956e-08
2.168932469e-08
2.153910818e-08
2.138563016e-08
2.122872722e-08
2.106816716e-08
2.090364968e-08
2.073480658e-08
2.05612056e-08
2.038235295e-08
2.019769752e-08
2.000663574e-08
1.980851639e-08
1.960264695e-08
1.938830147e-08
1.916472986e-08
1.89311692e-08
1.868685767e-08
1.843105122e-08
1.816304365e-08
1.788218988e-08
1.758793255e-08
1.727983186e-08
1.695759859e-08
1.662112972e-08
1.627054531e-08
1.590622478e-08
1.552884138e-08
1.513939282e-08
1.473922485e-08
1.433004418e-08
1.391391849e-08
1.349326181e-08
1.307080319e-08
1.2649538e-08
2.356929302e-08
2.348403498e-08
2.338339958e-08
2.329442148e-08
2.320812018e-08
2.311429653e-08
2.301229158e-08
2.290495765e-08
2.279370956e-08
2.267849973e-08
2.255918284e-08
2.243596707e-08
2.230917426e-08
2.217903005e-08
2.204564744e-08
2.190907848e-08
2.176932895e-08
2.162634632e-08
2.148000982e-08
2.133012809e-08
2.117643915e-08
2.101861128e-08
2.085624253e-08
2.068886148e-08
2.051592835e-08
2.033683678e-08
2.015091662e-08
1.995743742e-08
1.975561309e-08
1.954460841e-08
1.93235474e-08
1.909152435e-08
1.884761778e-08
1.859090804e-08
1.832049903e-08
1.803554462e-08
1.773527969e-08
1.741905594e-08
1.708638231e-08
1.673696989e-08
1.637078037e-08
1.598807542e-08
1.558946453e-08
1.517594898e-08
1.474895835e-08
1.431037494e-08
1.386254132e-08
1.34082479e-08
1.295069737e-08
1.249344479e-08
2.357352619e-08
2.348882828e-08
2.3389632e-08
2.330299606e-08
2.321981011e-08
2.312979305e-08
2.303219799e-08
2.292983575e-08
2.282405907e-08
2.271475517e-08
2.260171185e-08
2.248507151e-08
2.236509747e-08
2.22419633e-08
2.211573733e-08
2.198643068e-08
2.18540129e-08
2.171839982e-08
2.15794412e-08
2.143691673e-08
2.129053528e-08
2.113993378e-08
2.098467503e-08
2.082424607e-08
2.065805724e-08
2.048544189e-08
2.030565683e-08
2.01178837e-08
1.992123169e-08
1.971474196e-08
1.949739442e-08
1.926811757e-08
1.902580196e-08
1.876931802e-08
1.849753892e-08
1.820936937e-08
1.790378118e-08
1.757985575e-08
1.723683332e-08
1.687416886e-08
1.649159438e-08
1.608918511e-08
1.566742626e-08
1.522727617e-08
1.477022163e-08
1.429831924e-08
1.38142157e-08
1.332114123e-08
1.282287127e-08
1.232365301e-08
2.358572283e-08
2.350156677e-08
2.340371572e-08
2.331922767e-08
2.323888287e-08
2.315232477e-08
2.305878942e-08
2.296104353e-08
2.286038572e-08
2.27566449e-08
2.264955576e-08
2.25392132e-08
2.242583696e-08
2.230955904e-08
2.219040991e-08
2.206836731e-08
2.194337143e-08
2.181531137e-08
2.168401144e-08
2.154922604e-08
2.141063764e-08
2.126785384e-08
2.112040333e-08
2.096773202e-08
2.080919985e-08
2.064407797e-08
2.047154666e-08
2.029069396e-08
2.010051567e-08
1.989991698e-08
1.968771682e-08
1.946265534e-08
1.922340586e-08
1.896859186e-08
1.869681004e-08
1.840666067e-08
1.809678676e-08
1.776592333e-08
1.741295677e-08
1.703699422e-08
1.663744256e-08
1.621409552e-08
1.576722535e-08
1.529767349e-08
1.480693412e-08
1.429722195e-08
1.377151378e-08
1.323355366e-08
1.268781389e-08
1.213940556e-08
2.360482512e-08
2.352118246e-08
2.342458689e-08
2.334209162e-08
2.326438268e-08
2.318104383e-08
2.30912906e-08
2.299786799e-08
2.290203737e-08
2.28035844e-08
2.270220385e-08
2.259795489e-08
2.249102299e-08
2.238150733e-08
2.22694094e-08
2.215468209e-08
2.20372436e-08
2.191696262e-08
2.179364387e-08
2.166702206e-08
2.153675842e-08
2.140243602e-08
2.126355367e-08
2.111951988e-08
2.096964709e-08
2.081314615e-08
2.064912109e-08
2.047656437e-08
2.029435331e-08
2.010124814e-08
1.989589274e-08
1.967681848e-08
1.94424528e-08
1.919113364e-08
1.89211312e-08
1.86306786e-08
1.831801354e-08
1.798143319e-08
1.761936394e-08
1.723044602e-08
1.68136328e-08
1.636830446e-08
1.589439263e-08
1.539250928e-08
1.486407101e-08
1.431140752e-08
1.373783903e-08
1.314770565e-08
1.254633369e-08
1.193992727e-08
2.362976415e-08
2.354659216e-08
2.345116147e-08
2.337052752e-08
2.329529049e-08
2.321498413e-08
2.312881004e-08
2.303949767e-08
2.294828153e-08
2.285491622e-08
2.275906769e-08
2.266076904e-08
2.256018147e-08
2.245738211e-08
2.235235333e-08
2.224503176e-08
2.213532148e-08
2.202307856e-08
2.190809603e-08
2.179009665e-08
2.166872809e-08
2.154355638e-08
2.141405792e-08
2.12796111e-08
2.113948782e-08
2.099284486e-08
2.083871492e-08
2.067599785e-08
2.05034525e-08
2.031969018e-08
2.012317024e-08
1.991219877e-08
1.968493153e-08
1.943938324e-08
1.917344542e-08
1.888491516e-08
1.857153721e-08
1.823106277e-08
1.786132796e-08
1.746035418e-08
1.702647129e-08
1.655846398e-08
1.605573928e-08
1.551850819e-08
1.494796948e-08
1.434648049e-08
1.371769357e-08
1.306663104e-08
1.239967065e-08
1.172441854e-08
2.365955048e-08
2.35768201e-08
2.348248675e-08
2.340360976e-08
2.333071174e-08
2.325328573e-08
2.317052636e-08
2.308515476e-08
2.299838671e-08
2.290995477e-08
2.281950525e-08
2.272705445e-08
2.263274907e-08
2.253665392e-08
2.243874151e-08
2.233894117e-08
2.22371519e-08
2.213322652e-08
2.202695574e-08
2.191806001e-08
2.180618334e-08
2.169088515e-08
2.157163036e-08
2.144777852e-08
2.13185725e-08
2.118312621e-08
2.104041154e-08
2.088924487e-08
2.072827354e-08
2.055596312e-08
2.037058621e-08
2.01702136e-08
1.995270925e-08
1.971573119e-08
1.945674171e-08
1.917303016e-08
1.886175181e-08
1.851998653e-08
1.814482283e-08
1.773347265e-08
1.728342029e-08
1.679260772e-08
1.625965584e-08
1.568411648e-08
1.506674198e-08
1.440975203e-08
1.371706727e-08
1.299446822e-08
1.224963056e-08
1.149198972e-08
2.369325564e-08
2.361094455e-08
2.351765402e-08
2.344044957e-08
2.336978375e-08
2.329511495e-08
2.321563592e-08
2.313406589e-08
2.305160931e-08
2.29679849e-08
2.28828279e-08
2.279614677e-08
2.27080827e-08
2.261869717e-08
2.252796194e-08
2.243580837e-08
2.234214015e-08
2.224681699e-08
2.214963807e-08
2.205033298e-08
2.194855441e-08
2.184386856e-08
2.173574332e-08
2.162353498e-08
2.150647371e-08
2.138364752e-08
2.125398463e-08
2.111623474e-08
2.096894924e-08
2.081046086e-08
2.063886341e-08
2.045199281e-08
2.024741102e-08
2.002239502e-08
1.977393442e-08
1.949874199e-08
1.919328239e-08
1.885382447e-08
1.84765249e-08
1.805755226e-08
1.759325989e-08
1.708041363e-08
1.651647854e-08
1.589996351e-08
1.523081222e-08
1.451081462e-08
1.374399708e-08
1.29369292e-08
1.209886816e-08
1.124165361e-08
2.372999836e-08
2.364808805e-08
2.355579417e-08
2.348018987e-08
2.341166407e-08
2.333964604e-08
2.326333134e-08
2.318544258e-08
2.310717934e-08
2.302825366e-08
2.294829736e-08
2.286731903e-08
2.27854626e-08
2.270279487e-08
2.26192959e-08
2.253490864e-08
2.24495517e-08
2.236310271e-08
2.227538133e-08
2.218613948e-08
2.209505316e-08
2.200171159e-08
2.190560362e-08
2.1806102e-08
2.170244573e-08
2.159372015e-08
2.147883464e-08
2.13564981e-08
2.122519206e-08
2.108314137e-08
2.092828293e-08
2.075823361e-08
2.057025938e-08
2.036124781e-08
2.012768698e-08
1.986565542e-08
1.957083053e-08
1.923852372e-08
1.886375299e-08
1.844136556e-08
1.796622556e-08
1.743348126e-08
1.683892494e-08
1.617945403e-08
1.545362962e-08
1.46623067e-08
1.380928125e-08
1.290185907e-08
1.195121177e-08
1.097236042e-08
2.376893661e-08
2.368741068e-08
2.359607202e-08
2.352200244e-08
2.345553291e-08
2.338606849e-08
2.331281137e-08
2.323849206e-08
2.316431094e-08
2.308997984e-08
2.301513394e-08
2.293978909e-08
2.286409954e-08
2.278814554e-08
2.271192424e-08
2.263539984e-08
2.255851641e-08
2.248118115e-08
2.240324716e-08
2.232450333e-08
2.224466559e-08
2.2163365e-08
2.208013252e-08
2.19943811e-08
2.190538524e-08
2.181225752e-08
2.171392175e-08
2.160908232e-08
2.149618936e-08
2.137339958e-08
2.123853244e-08
2.108902258e-08
2.092186992e-08
2.073358954e-08
2.052016419e-08
2.027700399e-08
1.999892149e-08
1.968013328e-08
1.931430231e-08
1.889463883e-08
1.841408327e-08
1.786559813e-08
1.724259715e-08
1.653953765e-08
1.575269206e-08
1.488109145e-08
1.392759148e-08
1.289993856e-08
1.181160426e-08
1.068202971e-08
2.380926309e-08
2.372810587e-08
2.363768268e-08
2.356508494e-08
2.350059082e-08
2.343358543e-08
2.336328081e-08
2.329241912e-08
2.322220644e-08
2.315235985e-08
2.308252386e-08
2.301272793e-08
2.294314351e-08
2.287387192e-08
2.280493596e-08
2.273633053e-08
2.266803574e-08
2.260000022e-08
2.253212413e-08
2.246424899e-08
2.239614866e-08
2.232751672e-08
2.225794999e-08
2.218692901e-08
2.21137954e-08
2.20377255e-08
2.195769938e-08
2.18724642e-08
2.178049127e-08
2.167992629e-08
2.156853235e-08
2.144362502e-08
2.130199966e-08
2.113985233e-08
2.095269693e-08
2.073528283e-08
2.048152049e-08
2.018442731e-08
1.983611053e-08
1.942781213e-08
1.89500496e-08
1.839289707e-08
1.774645884e-08
1.700159039e-08
1.615091625e-08
1.519017393e-08
1.411986573e-08
1.29471398e-08
1.168765303e-08
1.03668372e-08
2.385020305e-08
2.376939835e-08
2.367985027e-08
2.360866065e-08
2.354605951e-08
2.348141567e-08
2.341395353e-08
2.334642996e-08
2.328006073e-08
2.321457293e-08
2.314962541e-08
2.308526675e-08
2.302169182e-08
2.29590301e-08
2.289733802e-08
2.283665018e-08
2.277699285e-08
2.271836789e-08
2.266073614e-08
2.260400769e-08
2.254803288e-08
2.249258947e-08
2.243736571e-08
2.238194005e-08
2.232575725e-08
2.226809984e-08
2.220805389e-08
2.214446727e-08
2.207589952e-08
2.200056204e-08
2.191624752e-08
2.182024666e-08
2.170925054e-08
2.157923776e-08
2.142534794e-08
2.124174437e-08
2.102147053e-08
2.07563111e-08
2.043667646e-08
2.005153904e-08
1.958846567e-08
1.903381181e-08
1.837316732e-08
1.759216808e-08
1.667779485e-08
1.56202662e-08
1.441551932e-08
1.306820648e-08
1.159492333e-08
1.002742068e-08
2.38910145e-08
2.381054494e-08
2.372182948e-08
2.365198073e-08
2.359118486e-08
2.352879742e-08
2.346405703e-08
2.339973758e-08
2.333706783e-08
2.32757887e-08
2.321557758e-08
2.315650685e-08
2.309880033e-08
2.304262197e-08
2.298806896e-08
2.293522361e-08
2.288416773e-08
2.283496732e-08
2.27876569e-08
2.274223041e-08
2.269863277e-08
2.26567476e-08
2.261638084e-08
2.257724089e-08
2.253891466e-08
2.250083797e-08
2.246225896e-08
2.242219334e-08
2.23793692e-08
2.233215919e-08
2.227849746e-08
2.221577859e-08
2.214073487e-08
2.204928828e-08
2.193637491e-08
2.179574087e-08
2.161971013e-08
2.139892926e-08
2.11221039e-08
2.077575543e-08
2.034404429e-08
1.980873614e-08
1.914943733e-08
1.834429855e-08
1.737145318e-08
1.621161152e-08
1.485201424e-08
1.329197469e-08
1.154857637e-08
9.661878243e-09
2.3930991e-08
2.385083781e-08
2.376290912e-08
2.369432812e-08
2.363524106e-08
2.35749929e-08
2.351283777e-08
2.345156818e-08
2.339242839e-08
2.333517615e-08
2.327951075e-08
2.322553229e-08
2.317349808e-08
2.312361162e-08
2.30760166e-08
2.303084975e-08
2.298825634e-08
2.294837623e-08
2.29113292e-08
2.287720691e-08
2.284606542e-08
2.281791456e-08
2.279270342e-08
2.277030224e-08
2.275047964e-08
2.27328736e-08
2.27169546e-08
2.270197976e-08
2.268693583e-08
2.267046733e-08
2.265078484e-08
2.262554944e-08
2.259172837e-08
2.254541466e-08
2.24816025e-08
2.239391066e-08
2.227424712e-08
2.211240949e-08
2.189562347e-08
2.160803586e-08
2.123020141e-08
2.073864098e-08
2.010559228e-08
1.929918053e-08
1.828430961e-08
1.702518471e-08
1.548997146e-08
1.366157736e-08
1.155043495e-08
9.216426969e-09
2.396946597e-08
2.388960881e-08
2.380241642e-08
2.373502197e-08
2.367753571e-08
2.361929436e-08
2.355956818e-08
2.350116928e-08
2.344535915e-08
2.339191461e-08
2.334055943e-08
2.329142431e-08
2.324480328e-08
2.320094302e-08
2.316003777e-08
2.312228347e-08
2.308789493e-08
2.305709341e-08
2.303009348e-08
2.300709606e-08
2.298828223e-08
2.297380572e-08
2.296378171e-08
2.295827153e-08
2.295726262e-08
2.296064222e-08
2.296816288e-08
2.2979398e-08
2.299368719e-08
2.301006578e-08
2.302717135e-08
2.304312138e-08
2.305535525e-08
2.306043003e-08
2.305375553e-08
2.302925182e-08
2.297890985e-08
2.289223208e-08
2.275553029e-08
2.255106765e-08
2.225605758e-08
2.184157504e-08
2.127154521e-08
2.050203192e-08
1.948116461e-08
1.8150382e-08
1.644605379e-08
1.43117946e-08
1.170467569e-08
8.689186414e-09
2.400581735e-08
2.392623383e-08
2.383972141e-08
2.377342251e-08
2.371741537e-08
2.366103049e-08
2.360355448e-08
2.35478192e-08
2.349510435e-08
2.34452074e-08
2.339787818e-08
2.335327954e-08
2.331174372e-08
2.327356233e-08
2.323898244e-08
2.320826191e-08
2.31816888e-08
2.315957091e-08
2.314222457e-08
2.312996906e-08
2.312311846e-08
2.31219828e-08
2.312686144e-08
2.313803145e-08
2.315573122e-08
2.31801393e-08
2.321134452e-08
2.324930412e-08
2.329379883e-08
2.334437185e-08
2.34002418e-08
2.346018449e-08
2.352237464e-08
2.358417435e-08
2.364184892e-08
2.369018313e-08
2.372196304e-08
2.37272742e-08
2.369255437e-08
2.359932286e-08
2.342251067e-08
2.31283156e-08
2.267173209e-08
2.199388842e-08
2.102097746e-08
1.966399119e-08
1.782426764e-08
1.540198789e-08
1.226640986e-08
8.414861333e-09
2.403947192e-08
2.396013713e-08
2.38742417e-08
2.380893664e-08
2.375427212e-08
2.369957418e-08
2.364414541e-08
2.359083703e-08
2.354094727e-08
2.349429478e-08
2.345065587e-08
2.341022554e-08
2.337337429e-08
2.33404389e-08
2.331171943e-08
2.328753495e-08
2.32682469e-08
2.325425099e-08
2.324597097e-08
2.324385814e-08
2.324835258e-08
2.325992443e-08
2.327906816e-08
2.330629261e-08
2.334211029e-08
2.338702575e-08
2.344151196e-08
2.350595738e-08
2.358065324e-08
2.366575278e-08
2.376119633e-08
2.386660818e-08
2.398115514e-08
2.410335319e-08
2.423079841e-08
2.435978832e-08
2.448478478e-08
2.4597648e-08
2.468653922e-08
2.473432708e-08
2.471626049e-08
2.459649423e-08
2.432314832e-08
2.382067465e-08
2.298231834e-08
2.165601627e-08
1.966430038e-08
1.678391573e-08
1.286897904e-08
7.907901957e-09
2.406990985e-08
2.399079606e-08
2.390544778e-08
2.384102378e-08
2.378755039e-08
2.373435072e-08
2.368074221e-08
2.362959443e-08
2.358222367e-08
2.353846936e-08
2.349813296e-08
2.346144008e-08
2.342879725e-08
2.340058405e-08
2.337715691e-08
2.335888971e-08
2.334621256e-08
2.33396015e-08
2.333958447e-08
2.334681201e-08
2.336177254e-08
2.338510001e-08
2.341749476e-08
2.345970025e-08
2.35125084e-08
2.357677374e-08
2.365341421e-08
2.374323586e-08
2.38470789e-08
2.396578561e-08
2.410012457e-08
2.425071641e-08
2.441792921e-08
2.460173086e-08
2.48014736e-08
2.501558122e-08
2.524108195e-08
2.547291228e-08
2.570288179e-08
2.591809159e-08
2.609846978e-08
2.621275173e-08
2.621193553e-08
2.601699952e-08
2.550028376e-08
2.443621244e-08
2.247701621e-08
1.890010891e-08
1.312869149e-08
3.931753973e-09
2.409666959e-08
2.401774624e-08
2.393286884e-08
2.386920285e-08
2.381675499e-08
2.376484652e-08
2.371280806e-08
2.366352562e-08
2.361833258e-08
2.357708931e-08
2.353961842e-08
2.350617316e-08
2.347719016e-08
2.34530805e-08
2.34342874e-08
2.342121164e-08
2.341434284e-08
2.341420791e-08
2.342132075e-08
2.343696984e-08
2.346123987e-08
2.349504276e-08
2.353929082e-08
2.359494222e-08
2.366303496e-08
2.374475645e-08
2.384174292e-08
2.395490643e-08
2.408568535e-08
2.423566667e-08
2.440650213e-08
2.45998785e-08
2.481747146e-08
2.506088109e-08
2.53314986e-08
2.563029751e-08
2.595751516e-08
2.63121627e-08
2.66912753e-08
2.708872989e-08
2.749337009e-08
2.788595155e-08
2.82340251e-08
2.848214802e-08
2.85347965e-08
2.820723321e-08
2.715917762e-08
2.443580282e-08
1.860976941e-08
1.563204097e-09
2.411935323e-08
2.404058714e-08
2.395609848e-08
2.389305836e-08
2.384145791e-08
2.379061692e-08
2.373987748e-08
2.369213947e-08
2.364874827e-08
2.360959288e-08
2.357450533e-08
2.354376744e-08
2.351785313e-08
2.349722596e-08
2.34822847e-08
2.347355606e-08
2.34716092e-08
2.347710158e-08
2.349082351e-08
2.351291965e-08
2.354488377e-08
2.358754104e-08
2.364188366e-08
2.370902447e-08
2.379012747e-08
2.388619374e-08
2.40014039e-08
2.413490667e-08
2.428919225e-08
2.446663319e-08
2.466973607e-08
2.490124566e-08
2.516409628e-08