/*--------------------------------*- C++ -*----------------------------------*\
| =========                 |                                                 |
| \\      /  F ield         | foam-extend: Open Source CFD                    |
|  \\    /   O peration     | Version:     4.1                                |
|   \\  /    A nd           | Web:         http://www.foam-extend.org         |
|    \\/     M anipulation  |                                                 |
\*---------------------------------------------------------------------------*/
FoamFile
{
    version     2.0;
    format      ascii;
    class       surfaceScalarField;
    location    "500000";
    object      phi;
}
// * * * * * * * * * * * * * * * * * * * * * * * * * * * * * * * * * * * * * //

dimensions      [0 3 -1 0 0 0 0];

internalField   nonuniform List<scalar> 
31542
(
1.063397371e-07
2.990262957e-09
1.007596599e-07
5.58007575e-09
9.428542243e-08
6.47423736e-09
8.752656623e-08
6.758856725e-09
8.077156935e-08
6.754997573e-09
7.428515149e-08
6.4864182e-09
6.823843278e-08
6.04671854e-09
6.272408188e-08
5.514350344e-09
5.778512752e-08
4.9389537e-09
5.342938124e-08
4.355745735e-09
4.964021379e-08
3.789167142e-09
4.638321513e-08
3.256998489e-09
4.36124491e-08
2.770765844e-09
4.127634662e-08
2.336102217e-09
3.932197185e-08
1.95437447e-09
3.769781423e-08
1.624157414e-09
3.635558534e-08
1.34222895e-09
3.525130434e-08
1.104281356e-09
3.434583661e-08
9.054682548e-10
3.360503245e-08
7.408046323e-10
3.299959205e-08
6.054406359e-10
3.250475181e-08
4.948401813e-10
3.209986421e-08
4.048873536e-10
3.176792991e-08
3.319341e-10
3.149509007e-08
2.728399002e-10
3.127014818e-08
2.249422475e-10
3.108413649e-08
1.860122496e-10
3.092992108e-08
1.542159507e-10
3.080184808e-08
1.28073302e-10
3.069543219e-08
1.064158423e-10
3.060707789e-08
8.835393617e-11
3.05338082e-08
7.326919002e-11
3.047332599e-08
6.048183655e-11
3.042371661e-08
4.960928429e-11
3.038326727e-08
4.044959362e-11
3.035042103e-08
3.284677975e-11
3.032371879e-08
2.67029486e-11
3.030175642e-08
2.196310888e-11
3.028315606e-08
1.860103601e-11
3.02665474e-08
1.660922137e-11
3.025055856e-08
1.598927298e-11
3.02338164e-08
1.674249932e-11
3.021495579e-08
1.886088774e-11
3.019265479e-08
2.2301231e-11
3.016568851e-08
2.69664719e-11
3.013261736e-08
3.307129272e-11
3.00921236e-08
4.04938673e-11
3.004295865e-08
4.916503544e-11
2.998393015e-08
5.902856823e-11
7.001666024e-11
2.991391355e-08
1.112758974e-07
1.044366531e-09
1.138371554e-07
3.018817412e-09
1.159207919e-07
4.390599757e-09
1.173098817e-07
5.369765718e-09
1.179533981e-07
6.111480676e-09
1.178386306e-07
6.601185875e-09
1.170599267e-07
6.825423274e-09
1.157454608e-07
6.828817203e-09
1.140214215e-07
6.662993848e-09
1.120056085e-07
6.371559118e-09
1.098025074e-07
5.992268513e-09
1.075001975e-07
5.559308575e-09
1.051694001e-07
5.101563602e-09
1.028650166e-07
4.640486e-09
1.006277148e-07
4.191676368e-09
9.848605412e-08
3.765817816e-09
9.645867376e-08
3.369608534e-09
9.455637327e-08
3.006580781e-09
9.278398753e-08
2.677853042e-09
9.114197362e-08
2.382818032e-09
8.962768667e-08
2.119727631e-09
8.823637084e-08
1.886156385e-09
8.696191543e-08
1.679343129e-09
8.579750425e-08
1.496345285e-09
8.473596186e-08
1.33438181e-09
8.377003676e-08
1.190866555e-09
8.289260995e-08
1.063438358e-09
8.209682654e-08
9.499991332e-10
8.137617638e-08
8.487239566e-10
8.072453623e-08
7.580570954e-10
8.013619419e-08
6.766973593e-10
7.960589757e-08
6.03567041e-10
7.912861311e-08
5.377670067e-10
7.869961436e-08
4.786080817e-10
7.831448943e-08
4.255740204e-10
7.79690725e-08
3.782628649e-10
7.765941051e-08
3.363639728e-10
7.738173093e-08
2.996417042e-10
7.713241328e-08
2.679177405e-10
7.690796654e-08
2.410550351e-10
7.670501043e-08
2.189444823e-10
7.652025822e-08
2.014938741e-10
7.635049898e-08
1.886194165e-10
7.619256139e-08
1.802383041e-10
7.604325008e-08
1.762774896e-10
7.589963196e-08
1.766892879e-10
7.575876298e-08
1.813628532e-10
7.561776052e-08
1.901675576e-10
7.547382256e-08
2.029666506e-10
2.19606707e-10
7.532423265e-08
1.096704287e-07
7.039375975e-10
1.107692933e-07
1.919953744e-09
1.122273697e-07
2.932523917e-09
1.138687279e-07
3.728407584e-09
1.156076065e-07
4.372601522e-09
1.173207671e-07
4.888024699e-09
1.188851475e-07
5.261042199e-09
1.202213803e-07
5.492584098e-09
1.212855412e-07
5.598832762e-09
1.22059743e-07
5.597357269e-09
1.225471464e-07
5.504864927e-09
1.227673046e-07
5.339150081e-09
1.227503389e-07
5.118529123e-09
1.225308888e-07
4.859936001e-09
1.221445262e-07
4.578039286e-09
1.216253482e-07
4.284996344e-09
1.21004565e-07
3.990392323e-09
1.20309745e-07
3.70140117e-09
1.195645571e-07
3.423041082e-09
1.18788848e-07
3.15852697e-09
1.179989217e-07
2.909653647e-09
1.172079257e-07
2.677152287e-09
1.164262763e-07
2.460992666e-09
1.156619943e-07
2.260627699e-09
1.149211597e-07
2.075216946e-09
1.142082661e-07
1.903760555e-09
1.13526511e-07
1.745193497e-09
1.12878048e-07
1.598461832e-09
1.122641949e-07
1.462576567e-09
1.116856044e-07
1.3366471e-09
1.111424025e-07
1.219898988e-09
1.106342891e-07
1.111680581e-09
1.101605984e-07
1.011458203e-09
1.097203938e-07
9.188133776e-10
1.093125291e-07
8.334394288e-10
1.089356711e-07
7.551216486e-10
1.0858832e-07
6.837156249e-10
1.082688305e-07
6.191317116e-10
1.079754274e-07
5.613212529e-10
1.077062194e-07
5.102633927e-10
1.074592104e-07
4.65953699e-10
1.07232309e-07
4.28395549e-10
1.070233331e-07
3.975954067e-10
1.068300217e-07
3.735498604e-10
1.066500577e-07
3.562416423e-10
1.064811029e-07
3.456441785e-10
1.063207637e-07
3.417021443e-10
1.061666086e-07
3.443228113e-10
1.060161875e-07
3.533878518e-10
3.687471596e-10
1.058670472e-07
1.095693504e-07
4.645863084e-10
1.100902122e-07
1.399091605e-09
1.108018299e-07
2.220906616e-09
1.116366631e-07
2.893574983e-09
1.125800668e-07
3.429198355e-09
1.136194598e-07
3.848632091e-09
1.147207149e-07
4.159787144e-09
1.158442279e-07
4.369071105e-09
1.169542343e-07
4.488826305e-09
1.180187547e-07
4.532837028e-09
1.190105102e-07
4.513109627e-09
1.199091165e-07
4.440543887e-09
1.207019191e-07
4.325726519e-09
1.213831743e-07
4.17868061e-09
1.219528809e-07
4.008332324e-09
1.224155184e-07
3.822358575e-09
1.227787187e-07
3.627191953e-09
1.230520639e-07
3.428056135e-09
1.23246082e-07
3.229023388e-09
1.233714869e-07
3.033122282e-09
1.234386533e-07
2.842487309e-09
1.234572827e-07
2.658522586e-09
1.234362155e-07
2.482059474e-09
1.233833452e-07
2.313497518e-09
1.233056333e-07
2.152928632e-09
1.23209153e-07
2.000240988e-09
1.230991492e-07
1.855197781e-09
1.229801129e-07
1.717498641e-09
1.228558622e-07
1.586827688e-09
1.227296206e-07
1.462888845e-09
1.2260409e-07
1.345429472e-09
1.224815157e-07
1.234254617e-09
1.223637405e-07
1.129233028e-09
1.22252253e-07
1.03030061e-09
1.221482311e-07
9.374611123e-10
1.220525738e-07
8.50778759e-10
1.219659248e-07
7.703644723e-10
1.218886916e-07
6.963647352e-10
1.218210618e-07
6.289508553e-10
1.217630169e-07
5.683081432e-10
1.217143445e-07
5.146259663e-10
1.216746532e-07
4.680868851e-10
1.21643374e-07
4.288746887e-10
1.216197829e-07
3.971410144e-10
1.216030129e-07
3.730117861e-10
1.215920648e-07
3.565924904e-10
1.215858179e-07
3.47949126e-10
1.215830382e-07
3.471026946e-10
1.215823971e-07
3.540290758e-10
3.686579093e-10
1.215824865e-07
1.094373586e-07
3.572277686e-10
1.097613668e-07
1.0750828e-09
1.102517728e-07
1.730500094e-09
1.108539224e-07
2.291425254e-09
1.115294021e-07
2.753718656e-09
1.122536881e-07
3.124346321e-09
1.130052845e-07
3.408190946e-09
1.137654006e-07
3.608954965e-09
1.145204195e-07
3.733807333e-09
1.152604531e-07
3.792803414e-09
1.159772997e-07
3.796263019e-09
1.166640372e-07
3.753806623e-09
1.173153033e-07
3.674460828e-09
1.179274041e-07
3.566580193e-09
1.184981857e-07
3.437550969e-09
1.19026889e-07
3.293655377e-09
1.195139756e-07
3.140105317e-09
1.199609085e-07
2.981123166e-09
1.203699041e-07
2.820027811e-09
1.207436915e-07
2.659334997e-09
1.210853037e-07
2.500875362e-09
1.213979081e-07
2.345918395e-09
1.216846775e-07
2.195290082e-09
1.219486968e-07
2.04947802e-09
1.221929013e-07
1.908723778e-09
1.224200398e-07
1.773102091e-09
1.226326534e-07
1.642583819e-09
1.228330676e-07
1.51708434e-09
1.230233944e-07
1.39650093e-09
1.232055409e-07
1.280742564e-09
1.233812204e-07
1.169750303e-09
1.235519647e-07
1.063510547e-09
1.237191355e-07
9.620625221e-10
1.238839349e-07
8.655013895e-10
1.240474173e-07
7.73978798e-10
1.242104982e-07
6.876979785e-10
1.243739598e-07
6.069030044e-10
1.245384521e-07
5.318724315e-10
1.247044942e-07
4.629088602e-10
1.248724763e-07
4.003261323e-10
1.250426602e-07
3.444421142e-10
1.252151807e-07
2.955665375e-10
1.253899997e-07
2.54055743e-10
1.255670155e-07
2.201253385e-10
1.257459764e-07
1.940509408e-10
1.259265158e-07
1.760532928e-10
1.261081641e-07
1.663009207e-10
1.262903531e-07
1.649138754e-10
1.264724231e-07
1.71959221e-10
1.874482905e-10
1.266536329e-07
1.094077785e-07
2.794496586e-10
1.096432377e-07
8.396239284e-10
1.100090721e-07
1.36466564e-09
1.104699709e-07
1.830526317e-09
1.109964203e-07
2.227269192e-09
1.115665001e-07
2.554266498e-09
1.121616496e-07
2.813041628e-09
1.127650976e-07
3.005507042e-09
1.133633278e-07
3.135577241e-09
1.13946661e-07
3.209470256e-09
1.145085022e-07
3.23442178e-09
1.150446108e-07
3.217697861e-09
1.155527255e-07
3.166346199e-09
1.160322132e-07
3.087092645e-09
1.164836379e-07
2.986126556e-09
1.169083801e-07
2.868913551e-09
1.173083585e-07
2.740127215e-09
1.176858213e-07
2.603660422e-09
1.180431797e-07
2.462669259e-09
1.183828773e-07
2.319637231e-09
1.187072947e-07
2.176457741e-09
1.190186861e-07
2.034526958e-09
1.193191392e-07
1.894836964e-09
1.196105548e-07
1.758062529e-09
1.198946397e-07
1.624639007e-09
1.201729117e-07
1.494830137e-09
1.204467107e-07
1.368784586e-09
1.207172132e-07
1.246581622e-09
1.209854462e-07
1.128267614e-09
1.212523037e-07
1.013884809e-09
1.215185613e-07
9.034926493e-10
1.217848892e-07
7.97182692e-10
1.220518633e-07
6.950885288e-10
1.223199753e-07
5.97389442e-10
1.225896407e-07
5.043134738e-10
1.228612036e-07
4.161350735e-10
1.231349387e-07
3.331678836e-10
1.234110479e-07
2.557632638e-10
1.236896667e-07
1.842900703e-10
1.23970853e-07
1.191399114e-10
1.242545958e-07
6.069945114e-11
1.245408999e-07
9.262620657e-12
1.248293312e-07
-3.437553292e-11
1.251197828e-07
-7.032616349e-11
1.254119339e-07
-9.810006368e-11
1.257054174e-07
-1.174300781e-10
1.259997962e-07
-1.280777647e-10
1.262945677e-07
-1.298574694e-10
1.265891728e-07
-1.226458267e-10
-1.063834355e-10
1.268830046e-07
1.093879127e-07
2.215368098e-10
1.095605116e-07
6.670251703e-10
1.098344272e-07
1.090750276e-09
1.101895587e-07
1.475394906e-09
1.106059965e-07
1.810831489e-09
1.11066714e-07
2.093548921e-09
1.115566297e-07
2.323125911e-09
1.120618036e-07
2.500333158e-09
1.125700907e-07
2.627290298e-09
1.130718533e-07
2.707707799e-09
1.135599235e-07
2.746351762e-09
1.140292476e-07
2.748373833e-09
1.144766202e-07
2.718973619e-09
1.149004605e-07
2.663252371e-09
1.15300529e-07
2.586058153e-09
1.156776147e-07
2.49182802e-09
1.160332506e-07
2.384491482e-09
1.163694721e-07
2.26743915e-09
1.166886127e-07
2.143528716e-09
1.169931378e-07
2.01511207e-09
1.172855161e-07
1.884079361e-09
1.175681271e-07
1.751915635e-09
1.178432006e-07
1.619763257e-09
1.181127788e-07
1.488484253e-09
1.183786985e-07
1.358719234e-09
1.186425876e-07
1.230941126e-09
1.189058697e-07
1.1055025e-09
1.191697754e-07
9.826758722e-10
1.194353559e-07
8.626870989e-10
1.197034982e-07
7.457424653e-10
1.199749411e-07
6.320498533e-10
1.202502896e-07
5.218342243e-10
1.205300292e-07
4.153491045e-10
1.208145349e-07
3.128837978e-10
1.211040729e-07
2.147755966e-10
1.213988342e-07
1.213737847e-10
1.216989336e-07
3.306844434e-11
1.220043784e-07
-4.968143475e-11
1.223151111e-07
-1.264426298e-10
1.226309851e-07
-1.967340151e-10
1.2295177e-07
-2.600854682e-10
1.232770667e-07
-3.160340718e-10
1.236067586e-07
-3.640674472e-10
1.239402516e-07
-4.03819059e-10
1.242770194e-07
-4.348678072e-10
1.246164463e-07
-4.568568593e-10
1.249578611e-07
-4.694924783e-10
1.253005455e-07
-4.725418337e-10
1.256437404e-07
-4.658406428e-10
-4.492993024e-10
1.259866562e-07
1.093738079e-07
1.777287854e-10
1.095053829e-07
5.354499256e-10
1.097174462e-07
8.786870967e-10
1.09997849e-07
1.194992251e-09
1.103327486e-07
1.475932015e-09
1.107089742e-07
1.717323457e-09
1.111145361e-07
1.917564015e-09
1.115384767e-07
2.07639251e-09
1.119710709e-07
2.194695958e-09
1.124042037e-07
2.274575036e-09
1.128314683e-07
2.319087222e-09
1.132480267e-07
2.331815575e-09
1.136504479e-07
2.316552596e-09
1.140365738e-07
2.277126599e-09
1.144053615e-07
2.217270469e-09
1.147566916e-07
2.140497916e-09
1.150911715e-07
2.050011503e-09
1.154099556e-07
1.948654909e-09
1.157145859e-07
1.838898459e-09
1.160068526e-07
1.722845306e-09
1.162886794e-07
1.602252607e-09
1.165620308e-07
1.478564378e-09
1.168288424e-07
1.352951687e-09
1.170909708e-07
1.226355784e-09
1.173501589e-07
1.099531018e-09
1.176080142e-07
9.730856919e-10
1.17865997e-07
8.475195443e-10
1.181254159e-07
7.23256949e-10
1.183874277e-07
6.006753271e-10
1.186530416e-07
4.80128723e-10
1.189231241e-07
3.619675261e-10
1.191984037e-07
2.465547624e-10
1.19479479e-07
1.342738468e-10
1.197668623e-07
2.550052168e-11
1.20060882e-07
-7.924409302e-11
1.203618036e-07
-1.795477768e-10
1.206697385e-07
-2.748664651e-10
1.209847169e-07
-3.646598394e-10
1.2130665e-07
-4.483757093e-10
1.216353544e-07
-5.254385515e-10
1.219705379e-07
-5.952690472e-10
1.223118027e-07
-6.572989726e-10
1.226586994e-07
-7.10964244e-10
1.230106238e-07
-7.557433891e-10
1.23366913e-07
-7.911569489e-10
1.237268261e-07
-8.167699097e-10
1.240895481e-07
-8.322144662e-10
1.244542041e-07
-8.371977649e-10
1.248198725e-07
-8.315090348e-10
-8.150266947e-10
1.251855999e-07
1.093645598e-07
1.431690336e-10
1.094684109e-07
4.315987382e-10
1.096369827e-07
7.101153136e-10
1.098623476e-07
9.696273338e-10
1.101348733e-07
1.203406409e-09
1.104447962e-07
1.407400753e-09
1.107829014e-07
1.579458977e-09
1.111406375e-07
1.718656458e-09
1.115102486e-07
1.825084833e-09
1.118850119e-07
1.89981165e-09
1.122593873e-07
1.944711692e-09
1.126290106e-07
1.962192308e-09
1.129906132e-07
1.954949963e-09
1.133419323e-07
1.925807697e-09
1.136816051e-07
1.877597674e-09
1.140090436e-07
1.813059414e-09
1.143242972e-07
1.734757817e-09
1.146279216e-07
1.645030369e-09
1.149208585e-07
1.545961323e-09
1.152043286e-07
1.439375157e-09
1.154797374e-07
1.326843788e-09
1.157485976e-07
1.20970425e-09
1.160124656e-07
1.089083807e-09
1.162728922e-07
9.659293264e-10
1.165313852e-07
8.410381159e-10
1.167893822e-07
7.150886894e-10
1.170482317e-07
5.886700714e-10
1.173091801e-07
4.623086657e-10
1.175733635e-07
3.364921041e-10
1.178418025e-07
2.116899074e-10
1.181154053e-07
8.836487837e-11
1.183949642e-07
-3.300403989e-11
1.186811376e-07
-1.518994221e-10
1.189744439e-07
-2.678058491e-10
1.192753373e-07
-3.801374799e-10
1.195840992e-07
-4.883096918e-10
1.199009198e-07
-5.916871555e-10
1.202258646e-07
-6.896046898e-10
1.205588664e-07
-7.813777702e-10
1.208997376e-07
-8.66309873e-10
1.212481679e-07
-9.436995485e-10
1.216037213e-07
-1.012852516e-09
1.219658489e-07
-1.07309199e-09
1.223338844e-07
-1.123778896e-09
1.227070522e-07
-1.16432466e-09
1.230844811e-07
-1.1941988e-09
1.234652135e-07
-1.212946864e-09
1.238482192e-07
-1.220203478e-09
1.24232412e-07
-1.215701824e-09
-1.199281937e-09
1.246166673e-07
1.093579193e-07
1.152497995e-10
1.094417087e-07
3.478095556e-10
1.095782836e-07
5.735405357e-10
1.097622904e-07
7.856206471e-10
1.099869964e-07
9.787004319e-10
1.102452284e-07
1.149168823e-09
1.105299206e-07
1.294766783e-09
1.10834344e-07
1.414233062e-09
1.111522691e-07
1.507159736e-09
1.11478154e-07
1.573926766e-09
1.11807286e-07
1.615579624e-09
1.121358269e-07
1.633651373e-09
1.124607883e-07
1.629988552e-09
1.127799795e-07
1.606616434e-09
1.130919405e-07
1.565636566e-09
1.133958586e-07
1.509141128e-09
1.13691474e-07
1.439142309e-09
1.139789829e-07
1.357521473e-09
1.142589454e-07
1.265998726e-09
1.145322016e-07
1.166118942e-09
1.147997953e-07
1.059250129e-09
1.150629086e-07
9.465910019e-10
1.153228068e-07
8.291856921e-10
1.155807932e-07
7.079429782e-10
1.158381735e-07
5.836578986e-10
1.160962272e-07
4.570351441e-10
1.163561859e-07
3.287115913e-10
1.166192148e-07
1.992800174e-10
1.168864064e-07
6.930069475e-11
1.171587637e-07
-6.066721547e-11
1.174371883e-07
-1.900595842e-10
1.177224798e-07
-3.182954898e-10
1.180153402e-07
-4.447597353e-10
1.183163456e-07
-5.688112311e-10
1.186259719e-07
-6.897638065e-10
1.189445539e-07
-8.068917979e-10
1.192723021e-07
-9.19435466e-10
1.196092964e-07
-1.026599284e-09
1.199554792e-07
-1.127560823e-09
1.203106508e-07
-1.221481773e-09
1.206744686e-07
-1.307517468e-09
1.210464461e-07
-1.384830161e-09
1.214259584e-07
-1.452604283e-09
1.218122431e-07
-1.510063665e-09
1.222044069e-07
-1.556488497e-09
1.22601439e-07
-1.591230889e-09
1.230022242e-07
-1.613732083e-09
1.23405559e-07
-1.62353822e-09
1.238101705e-07
-1.620313323e-09
-1.603850152e-09
1.242147388e-07
1.09352957e-07
9.229278687e-11
1.094218073e-07
2.789594513e-10
1.095343716e-07
4.609765245e-10
1.096868939e-07
6.33098535e-10
1.098745457e-07
7.910487642e-10
1.10091997e-07
9.317176369e-10
1.103338208e-07
1.052942891e-09
1.105947306e-07
1.153323132e-09
1.108697471e-07
1.232143143e-09
1.111543512e-07
1.289322716e-09
1.114446005e-07
1.325330292e-09
1.117371903e-07
1.341061607e-09
1.120294624e-07
1.337716451e-09
1.12319385e-07
1.316693761e-09
1.126055148e-07
1.279506538e-09
1.128869451e-07
1.227710534e-09
1.131632425e-07
1.162844804e-09
1.134343776e-07
1.086386202e-09
1.137006575e-07
9.997188955e-10
1.139626594e-07
9.041171037e-10
1.142211709e-07
8.007386835e-10
1.14477136e-07
6.906259607e-10
1.147316072e-07
5.74714538e-10
1.149857047e-07
4.538455242e-10
1.152405847e-07
3.287780732e-10
1.15497409e-07
2.002110457e-10
1.157573282e-07
6.879258589e-11
1.160214515e-07
-6.484303096e-11
1.162908303e-07
-2.00077821e-10
1.165664613e-07
-3.362981489e-10
1.168492599e-07
-4.728580656e-10
1.171400533e-07
-6.090888378e-10
1.174395743e-07
-7.4428074e-10
1.177484434e-07
-8.776802135e-10
1.180671647e-07
-1.008485146e-09
1.183961165e-07
-1.135843792e-09
1.187355404e-07
-1.258859481e-09
1.190855336e-07
-1.37659271e-09
1.194460413e-07
-1.488068859e-09
1.198168491e-07
-1.592289763e-09
1.201975781e-07
-1.688246577e-09
1.205876831e-07
-1.774935282e-09
1.209864535e-07
-1.851374691e-09
1.213930161e-07
-1.916626283e-09
1.218063425e-07
-1.96981508e-09
1.222252618e-07
-2.01015023e-09
1.226484753e-07
-2.036945527e-09
1.230745761e-07
-2.049638938e-09
1.235020725e-07
-2.047809667e-09
-2.031192312e-09
1.239294147e-07
1.093491669e-07
7.312596872e-11
1.094066082e-07
2.215183069e-10
1.095007166e-07
3.668683223e-10
1.096287583e-07
5.050570035e-10
1.09787184e-07
6.326231215e-10
1.099719916e-07
7.469101095e-10
1.101790089e-07
8.459255177e-10
1.104040901e-07
9.28241859e-10
1.106432637e-07
9.929694175e-10
1.108928588e-07
1.039727618e-09
1.111496043e-07
1.068584789e-09
1.114106921e-07
1.079973855e-09
1.116738037e-07
1.074604732e-09
1.119371115e-07
1.053385869e-09
1.12199261e-07
1.017356917e-09
1.124593405e-07
9.676308079e-10
1.127168406e-07
9.053446345e-10
1.129716062e-07
8.316205538e-10
1.132237872e-07
7.475378707e-10
1.134737893e-07
6.541150462e-10
1.137222254e-07
5.523025915e-10
1.139698732e-07
4.429781571e-10
1.142176364e-07
3.269512879e-10
1.144665067e-07
2.049753352e-10
1.147175336e-07
7.775127283e-11
1.149718059e-07
-5.406113535e-11
1.15230401e-07
-1.898022707e-10
1.15494406e-07
-3.288478443e-10
1.157648724e-07
-4.705441716e-10
1.16042801e-07
-6.142265574e-10
1.163291356e-07
-7.591926181e-10
1.166247432e-07
-9.04696273e-10
1.169304015e-07
-1.04993904e-09
1.172467853e-07
-1.194063905e-09
1.175744521e-07
-1.33615197e-09
1.179138296e-07
-1.475221457e-09
1.182652004e-07
-1.610230398e-09
1.186286891e-07
-1.740081565e-09
1.19004251e-07
-1.863630917e-09
1.193916612e-07
-1.979700024e-09
1.197905061e-07
-2.087091534e-09
1.202001783e-07
-2.184607631e-09
1.20619875e-07
-2.271071532e-09
1.210486001e-07
-2.345351441e-09
1.214851709e-07
-2.406386063e-09
1.219282313e-07
-2.453210648e-09
1.223762686e-07
-2.484982877e-09
1.228276373e-07
-2.501007599e-09
1.232805866e-07
-2.500758969e-09
-2.48389899e-09
1.237332934e-07
1.093462021e-07
5.692406224e-11
1.093947188e-07
1.730017859e-10
1.094743227e-07
2.872646094e-10
1.095829661e-07
3.964136089e-10
1.097179854e-07
4.976038253e-10
1.098763376e-07
5.885577553e-10
1.100547957e-07
6.674673728e-10
1.10250098e-07
7.329395179e-10
1.104590723e-07
7.839951049e-10
1.106787409e-07
8.200591104e-10
1.109064055e-07
8.409202031e-10
1.111397066e-07
8.466727115e-10
1.113766567e-07
8.376545544e-10
1.116156526e-07
8.143898402e-10
1.11855472e-07
7.775373947e-10
1.120952579e-07
7.278448924e-10
1.123344935e-07
6.661090529e-10
1.125729712e-07
5.93142882e-10
1.12810757e-07
5.097520835e-10
1.130481552e-07
4.167167867e-10
1.132856716e-07
3.147859761e-10
1.135239783e-07
2.046713467e-10
1.137638665e-07
8.706301067e-11
1.140062722e-07
-3.743033908e-11
1.142521535e-07
-1.68129975e-10
1.14502557e-07
-3.04464566e-10
1.147585528e-07
-4.457979487e-10
1.150212116e-07
-5.915065673e-10
1.15291601e-07
-7.409334342e-10
1.155707564e-07
-8.933818547e-10
1.158596681e-07
-1.048104213e-09
1.161592632e-07
-1.204291195e-09
1.164703878e-07
-1.361063497e-09
1.167937894e-07
-1.51746543e-09
1.171300985e-07
-1.67246107e-09
1.174798102e-07
-1.824933197e-09
1.178432654e-07
-1.973685675e-09
1.182206331e-07
-2.117449279e-09
1.186118933e-07
-2.25489117e-09
1.190168219e-07
-2.384628643e-09
1.194349774e-07
-2.50524707e-09
1.198656915e-07
-2.615321909e-09
1.203080644e-07
-2.713444587e-09
1.207609645e-07
-2.79825167e-09
1.212230347e-07
-2.868456414e-09
1.216927056e-07
-2.922881591e-09
1.22168215e-07
-2.960492432e-09
1.226476357e-07
-2.980428347e-09
1.231289085e-07
-2.982031792e-09
-2.964872767e-09
1.236098822e-07
1.093438326e-07
4.309158433e-11
1.093852204e-07
1.316142214e-10
1.094531975e-07
2.192875874e-10
1.095461919e-07
3.034191788e-10
1.096621641e-07
3.816314802e-10
1.097987676e-07
4.519540397e-10
1.099534842e-07
5.127506025e-10
1.101237362e-07
5.626874751e-10
1.103069855e-07
6.007459735e-10
1.105008198e-07
6.26224893e-10
1.107030242e-07
6.387158402e-10
1.109116339e-07
6.380631034e-10
1.11124968e-07
6.243204257e-10
1.113416484e-07
5.97709416e-10
1.115606045e-07
5.585812229e-10
1.117810683e-07
5.073810356e-10
1.120025607e-07
4.446167828e-10
1.122248718e-07
3.708318115e-10
1.124480382e-07
2.865856149e-10
1.126723158e-07
1.924389828e-10
1.128981338e-07
8.896783277e-11
1.131261691e-07
-2.336414752e-11
1.133570933e-07
-1.438613397e-10
1.135917983e-07
-2.721354303e-10
1.138312543e-07
-4.07585987e-10
1.140764736e-07
-5.496839213e-10
1.143285361e-07
-6.978604086e-10
1.145885396e-07
-8.515099284e-10
1.148575893e-07
-1.009983071e-09
1.1513678e-07
-1.172572347e-09
1.154271752e-07
-1.338499272e-09
1.157297875e-07
-1.506903353e-09
1.160455572e-07
-1.676833035e-09
1.163753304e-07
-1.847238525e-09
1.167198364e-07
-2.0169671e-09
1.170796647e-07
-2.184761457e-09
1.174552406e-07
-2.349261551e-09
1.178468017e-07
-2.509010354e-09
1.182543747e-07
-2.662464093e-09
1.186777536e-07
-2.808007575e-09
1.191164813e-07
-2.943974861e-09
1.195698345e-07
-3.06867524e-09
1.200368141e-07
-3.180424301e-09
1.205161418e-07
-3.277579554e-09
1.210062649e-07
-3.358579611e-09
1.215053689e-07
-3.421985642e-09
1.220113999e-07
-3.466523551e-09
1.225220965e-07
-3.491125079e-09
1.230350304e-07
-3.494965742e-09
-3.477497384e-09
1.235476549e-07
1.093419007e-07
3.119089674e-11
1.093774801e-07
9.603485109e-11
1.094359573e-07
1.608103411e-10
1.095160973e-07
2.232790376e-10
1.096163092e-07
2.814193958e-10
1.097347582e-07
3.335048717e-10
1.098694611e-07
3.780476981e-10
1.100183691e-07
4.137794206e-10
1.101794462e-07
4.396689691e-10
1.103507386e-07
4.549326661e-10
1.105304336e-07
4.59020947e-10
1.107169057e-07
4.515909999e-10
1.109087498e-07
4.324764337e-10
1.111048011e-07
4.016580542e-10
1.113041464e-07
3.592360458e-10
1.115061247e-07
3.054028309e-10
1.117103225e-07
2.404189746e-10
1.119165612e-07
1.645931189e-10
1.121248747e-07
7.827195159e-11
1.123355745e-07
-1.82610339e-11
1.125490009e-07
-1.244587637e-10
1.127657448e-07
-2.401082227e-10
1.129866108e-07
-3.647274451e-10
1.132124158e-07
-4.979406102e-10
1.134441375e-07
-6.393077057e-10
1.13682813e-07
-7.883594794e-10
1.139295456e-07
-9.445929741e-10
1.141854872e-07
-1.107451437e-09
1.144518156e-07
-1.276311304e-09
1.147297132e-07
-1.450469855e-09
1.150203465e-07
-1.629132385e-09
1.153248432e-07
-1.811399957e-09
1.156442689e-07
-1.996258661e-09
1.159796012e-07
-2.182570807e-09
1.163317027e-07
-2.369068554e-09
1.167012919e-07
-2.554350614e-09
1.170889132e-07
-2.736882766e-09
1.174949058e-07
-2.915002961e-09
1.179193736e-07
-3.086931833e-09
1.183621553e-07
-3.250789363e-09
1.188227987e-07
-3.404618256e-09
1.193005376e-07
-3.546414227e-09
1.197942764e-07
-3.674163132e-09
1.203025811e-07
-3.785884416e-09
1.208236813e-07
-3.879679877e-09
1.213554818e-07
-3.953786164e-09
1.218955872e-07
-4.006629028e-09
1.224413389e-07
-4.036876957e-09
1.229898646e-07
-4.043491405e-09
-4.025770454e-09
1.235381377e-07
1.093402941e-07
2.089677792e-11
1.093710493e-07
6.527964591e-11
1.094216172e-07
1.102422443e-10
1.094910069e-07
1.538890504e-10
1.095779556e-07
1.944704672e-10
1.09681009e-07
2.304513888e-10
1.097985894e-07
2.604673156e-10
1.099290578e-07
2.833110598e-10
1.100707747e-07
2.979521971e-10
1.10222156e-07
3.035515068e-10
1.103817215e-07
2.994555229e-10
1.105481341e-07
2.851784433e-10
1.107202306e-07
2.603799891e-10
1.108970429e-07
2.24845809e-10
1.110778109e-07
1.78468151e-10
1.112619874e-07
1.212264081e-10
1.114492369e-07
5.316944107e-11
1.116394618e-07
-2.563185974e-11
1.118327089e-07
-1.14975235e-10
1.120292039e-07
-2.147561681e-10
1.122294752e-07
-3.247302091e-10
1.12434074e-07
-4.447072016e-10
1.12643775e-07
-5.744286574e-10
1.128594426e-07
-7.136083101e-10
1.130820665e-07
-8.619315926e-10
1.133127392e-07
-1.019032202e-09
1.135526318e-07
-1.184485515e-09
1.138029771e-07
-1.357796667e-09
1.140650517e-07
-1.538385706e-09
1.143401551e-07
-1.725573176e-09
1.146295884e-07
-1.918565666e-09
1.149346298e-07
-2.116441411e-09
1.152565081e-07
-2.318136949e-09
1.155963729e-07
-2.522435555e-09
1.159552624e-07
-2.727958052e-09
1.163340686e-07
-2.933156808e-09
1.167334998e-07
-3.136313914e-09
1.171540415e-07
-3.335544611e-09
1.175959168e-07
-3.528807104e-09
1.180590473e-07
-3.713919879e-09
1.185430165e-07
-3.888587472e-09
1.190470375e-07
-4.050435278e-09
1.19569928e-07
-4.197053531e-09
1.201100936e-07
-4.326050103e-09
1.206655248e-07
-4.435111123e-09
1.212338062e-07
-4.522067648e-09
1.21812143e-07
-4.584965809e-09
1.223974032e-07
-4.622137228e-09
1.229861777e-07
-4.632265922e-09
-4.614447336e-09
1.235748546e-07
1.093389306e-07
1.196618255e-11
1.093656048e-07
3.860523444e-11
1.09409465e-07
6.638191033e-11
1.09469699e-07
9.365487961e-11
1.095452902e-07
1.188790948e-10
1.096350722e-07
1.406692622e-10
1.097377757e-07
1.57763824e-10
1.098520784e-07
1.690083947e-10
1.099766538e-07
1.73376983e-10
1.101102148e-07
1.699906132e-10
1.10251554e-07
1.581163148e-10
1.103995772e-07
1.371552774e-10
1.105533307e-07
1.066264963e-10
1.107120216e-07
6.615488998e-11
1.108750322e-07
1.54576439e-11
1.110419371e-07
-4.567852059e-11
1.11212481e-07
-1.173744904e-10
1.113865897e-07
-1.997406487e-10
1.115644201e-07
-2.928056599e-10
1.117462545e-07
-3.965906265e-10
1.119325879e-07
-5.110637468e-10
1.121240424e-07
-6.361617878e-10
1.12321402e-07
-7.717884043e-10
1.125255925e-07
-9.17798824e-10
1.127376621e-07
-1.074001134e-09
1.12958772e-07
-1.240142023e-09
1.131901811e-07
-1.415894546e-09
1.134332301e-07
-1.600845512e-09
1.136893238e-07
-1.794479446e-09
1.139599122e-07
-1.996161552e-09
1.142464669e-07
-2.205120457e-09
1.145504562e-07
-2.420430766e-09
1.148733154e-07
-2.640996145e-09
1.152164135e-07
-2.865533745e-09
1.155810163e-07
-3.092560829e-09
1.15968244e-07
-3.32038459e-09
1.163790265e-07
-3.547096411e-09
1.16814054e-07
-3.770572019e-09
1.17273726e-07
-3.988479115e-09
1.177581003e-07
-4.198294112e-09
1.182668423e-07
-4.397329493e-09
1.1879918e-07
-4.582772914e-09
1.193538652e-07
-4.751738659e-09
1.199291465e-07
-4.901331368e-09
1.205227566e-07
-5.028721215e-09
1.211319175e-07
-5.13122863e-09
1.21753367e-07
-5.206415412e-09
1.223834077e-07
-5.252177872e-09
1.230179785e-07
-5.266836725e-09
-5.249217631e-09
1.236527487e-07
1.093377401e-07
4.225934039e-12
1.093608964e-07
1.54488772e-11
1.093989725e-07
2.830566861e-11
1.094512778e-07
4.134950928e-11
1.09516974e-07
5.318280461e-11
1.095951225e-07
6.252066144e-11
1.096846881e-07
6.819822719e-11
1.097845973e-07
6.909925112e-11
1.098937732e-07
6.420115018e-11
1.100111673e-07
5.259655912e-11
1.101357894e-07
3.3494129e-11
1.102667469e-07
6.197723686e-12
1.10403266e-07
-2.989257979e-11
1.105447093e-07
-7.528854373e-11
1.106905869e-07
-1.304199754e-10
1.108405638e-07
-1.956554685e-10
1.109944904e-07
-2.713011244e-10
1.111523713e-07
-3.576215704e-10
1.113143983e-07
-4.548326772e-10
1.114809199e-07
-5.631123081e-10
1.116524574e-07
-6.826012887e-10
1.118296941e-07
-8.133985246e-10
1.120134663e-07
-9.555606277e-10
1.122047598e-07
-1.109092235e-09
1.124046979e-07
-1.273939128e-09
1.126145329e-07
-1.449976888e-09
1.12835635e-07
-1.63699654e-09
1.130694785e-07
-1.834688983e-09
1.133176261e-07
-2.042627062e-09
1.135817102e-07
-2.260245725e-09
1.138634108e-07
-2.486821114e-09
1.141644289e-07
-2.721448936e-09
1.144864554e-07
-2.963022731e-09
1.148311345e-07
-3.210212887e-09
1.15200021e-07
-3.461447373e-09
1.155945318e-07
-3.714895388e-09
1.160158909e-07
-3.968455523e-09
1.164650693e-07
-4.219750342e-09
1.169427198e-07
-4.466129589e-09
1.1744911e-07
-4.704684288e-09
1.179840546e-07
-4.932274036e-09
1.185468511e-07
-5.145569453e-09
1.191362237e-07
-5.341111249e-09
1.197502789e-07
-5.515386454e-09
1.20386479e-07
-5.664921314e-09
1.210416392e-07
-5.786388945e-09
1.217119517e-07
-5.876728044e-09
1.223930407e-07
-5.933266959e-09
1.230800496e-07
-5.953845697e-09
-5.936927049e-09
1.23767759e-07
1.093367471e-07
-2.521207604e-12
1.093568036e-07
-4.607645245e-12
1.093897524e-07
-4.643181928e-12
1.094350288e-07
-3.927003537e-12
1.094919331e-07
-3.721487968e-12
1.095597401e-07
-5.286371692e-12
1.096375457e-07