/*--------------------------------*- C++ -*----------------------------------*\
| =========                 |                                                 |
| \\      /  F ield         | foam-extend: Open Source CFD                    |
|  \\    /   O peration     | Version:     4.1                                |
|   \\  /    A nd           | Web:         http://www.foam-extend.org         |
|    \\/     M anipulation  |                                                 |
\*---------------------------------------------------------------------------*/
FoamFile
{
    version     2.0;
    format      ascii;
    class       surfaceScalarField;
    location    "500000";
    object      phi;
}
// * * * * * * * * * * * * * * * * * * * * * * * * * * * * * * * * * * * * * //

dimensions      [0 3 -1 0 0 0 0];

internalField   nonuniform List<scalar> 
31542
(
1.061855095e-07
3.144490533e-09
1.021315809e-07
4.053928697e-09
9.78902904e-08
4.241290617e-09
9.356137738e-08
4.328913116e-09
8.921012811e-08
4.351249364e-09
8.492036474e-08
4.289763447e-09
8.075174186e-08
4.168622934e-09
7.6736962e-08
4.014779903e-09
7.289649478e-08
3.840467246e-09
6.924393078e-08
3.652564021e-09
6.578800283e-08
3.455927966e-09
6.253363006e-08
3.254372786e-09
5.948268506e-08
3.050945037e-09
5.663460034e-08
2.848084769e-09
5.398682156e-08
2.647778819e-09
5.153514761e-08
2.451673982e-09
4.92740038e-08
2.261143833e-09
4.719667724e-08
2.077326555e-09
4.529553189e-08
1.901145347e-09
4.356220597e-08
1.733325926e-09
4.198779527e-08
1.574410717e-09
4.056302421e-08
1.424771092e-09
3.927840398e-08
1.284620253e-09
3.812437641e-08
1.154027584e-09
3.709144202e-08
1.032934363e-09
3.617027208e-08
9.211698827e-10
3.535180206e-08
8.184699381e-10
3.462730588e-08
7.244960932e-10
3.398845337e-08
6.388524492e-10
3.342735127e-08
5.611020438e-10
3.293656915e-08
4.907820794e-10
3.250915166e-08
4.274174335e-10
3.213861935e-08
3.705322542e-10
3.18189597e-08
3.196595687e-10
3.154461072e-08
2.743489106e-10
3.131043862e-08
2.341720465e-10
3.111171164e-08
1.987269493e-10
3.094407141e-08
1.676402083e-10
3.080350328e-08
1.405681021e-10
3.068630674e-08
1.171965082e-10
3.058906688e-08
9.723981602e-11
3.050862753e-08
8.043930801e-11
3.04420662e-08
6.656129868e-11
3.038667165e-08
5.539450409e-11
3.033992545e-08
4.674616176e-11
3.029948815e-08
4.043724251e-11
3.026318731e-08
3.630078882e-11
3.022900552e-08
3.418174537e-11
3.019507162e-08
3.393386097e-11
3.541808556e-11
3.015965353e-08
1.105728166e-07
1.901674126e-09
1.113494639e-07
3.277281609e-09
1.115804104e-07
4.010344168e-09
1.114502904e-07
4.459033247e-09
1.110264909e-07
4.775049032e-09
1.103422789e-07
4.973975467e-09
1.094402015e-07
5.070700368e-09
1.083647289e-07
5.090252633e-09
1.071530782e-07
5.052117932e-09
1.058367867e-07
4.96885561e-09
1.044431532e-07
4.849561453e-09
1.029958588e-07
4.701667292e-09
1.015153725e-07
4.531431341e-09
1.0001933e-07
4.34412733e-09
9.852286834e-08
4.144240543e-09
9.703890514e-08
3.935637195e-09
9.557837586e-08
3.721673108e-09
9.415043705e-08
3.505265364e-09
9.276265957e-08
3.288922853e-09
9.142119867e-08
3.074786877e-09
9.013094749e-08
2.86466198e-09
8.889567773e-08
2.660040924e-09
8.77181685e-08
2.462129526e-09
8.660032405e-08
2.271872012e-09
8.554328074e-08
2.089977604e-09
8.454750809e-08
1.916942456e-09
8.361289948e-08
1.753078478e-09
8.273884991e-08
1.59854564e-09
8.192432804e-08
1.453374342e-09
8.116793969e-08
1.317490457e-09
8.046798379e-08
1.190738046e-09
7.982250152e-08
1.072899751e-09
7.922931911e-08
9.637147195e-10
7.86860848e-08
8.628939319e-10
7.819030086e-08
7.70132938e-10
7.773935095e-08
6.851220721e-10
7.733052372e-08
6.07554311e-10
7.696103309e-08
5.371309798e-10
7.662803572e-08
4.735656124e-10
7.632864635e-08
4.165860091e-10
7.60599519e-08
3.659344035e-10
7.581902433e-08
3.213670106e-10
7.560293221e-08
2.826535599e-10
7.540875177e-08
2.495750787e-10
7.523357895e-08
2.219190955e-10
7.507454421e-08
1.99472077e-10
7.492882442e-08
1.820206976e-10
7.479364689e-08
1.693594106e-10
7.466630057e-08
1.612803388e-10
1.575717325e-10
7.454414707e-08
1.100113641e-07
1.220310156e-09
1.109614538e-07
2.327191988e-09
1.118609687e-07
3.110829339e-09
1.126490568e-07
3.670945189e-09
1.133257702e-07
4.098335701e-09
1.138775917e-07
4.42215399e-09
1.142960737e-07
4.652218442e-09
1.14584263e-07
4.802063267e-09
1.14750375e-07
4.886005997e-09
1.148040694e-07
4.915161261e-09
1.147556871e-07
4.897943823e-09
1.146159937e-07
4.841360723e-09
1.143958413e-07
4.751583822e-09
1.141058946e-07
4.634074124e-09
1.137564549e-07
4.493680205e-09
1.133573449e-07
4.334747165e-09
1.129178326e-07
4.161185367e-09
1.124465846e-07
3.976513419e-09
1.119516255e-07
3.783881956e-09
1.114403187e-07
3.586093642e-09
1.109193604e-07
3.385620239e-09
1.103947832e-07
3.184618163e-09
1.098719678e-07
2.984944911e-09
1.093556623e-07
2.788177398e-09
1.088500076e-07
2.59563228e-09
1.083585622e-07
2.40838779e-09
1.078843321e-07
2.227308558e-09
1.074298061e-07
2.053071564e-09
1.0699699e-07
1.886190487e-09
1.065874405e-07
1.727039864e-09
1.062023004e-07
1.575878206e-09
1.058423307e-07
1.432869398e-09
1.055079434e-07
1.298102024e-09
1.05199231e-07
1.171606374e-09
1.049159949e-07
1.053369009e-09
1.046577721e-07
9.433448563e-10
1.044238595e-07
8.414669068e-10
1.042133369e-07
7.476535969e-10
1.040250879e-07
6.61814572e-10
1.038578198e-07
5.838540636e-10
1.037100835e-07
5.136706285e-10
1.03580292e-07
4.511584669e-10
1.03466736e-07
3.962095957e-10
1.033675992e-07
3.487117463e-10
1.032809772e-07
3.085411036e-10
1.032049085e-07
2.755406834e-10
1.03137379e-07
2.495501922e-10
1.030763321e-07
2.304062183e-10
1.030196924e-07
2.179200405e-10
2.118854762e-10
1.029653787e-07
1.096939509e-07
8.563592569e-10
1.103202136e-07
1.700929353e-09
1.110371791e-07
2.39386386e-09
1.117710241e-07
2.937100208e-09
1.125010483e-07
3.368311503e-09
1.132118569e-07
3.71134537e-09
1.138875874e-07
3.976487942e-09
1.145172986e-07
4.172352111e-09
1.150949629e-07
4.30834176e-09
1.156173097e-07
4.392814513e-09
1.160827571e-07
4.432496431e-09
1.164911137e-07
4.433004209e-09
1.168433908e-07
4.399306813e-09
1.171415658e-07
4.335899136e-09
1.173883709e-07
4.246875023e-09
1.175871284e-07
4.135989649e-09
1.177416066e-07
4.006707141e-09
1.178558915e-07
3.862228555e-09
1.179342685e-07
3.705504867e-09
1.179811195e-07
3.539242658e-09
1.180008323e-07
3.365907475e-09
1.179977234e-07
3.187726988e-09
1.17975973e-07
3.006695321e-09
1.179395705e-07
2.824579869e-09
1.178922718e-07
2.642930923e-09
1.178375656e-07
2.463094062e-09
1.17778649e-07
2.286225146e-09
1.177184134e-07
2.113307306e-09
1.17659435e-07
1.945168934e-09
1.17603973e-07
1.782501984e-09
1.175539712e-07
1.625880159e-09
1.175110643e-07
1.475776402e-09
1.174765872e-07
1.332579199e-09
1.174515863e-07
1.196607375e-09
1.174368323e-07
1.068123103e-09
1.174328343e-07
9.47342902e-10
1.174398547e-07
8.344465628e-10
1.174579247e-07
7.295836844e-10
1.17486857e-07
6.328822954e-10
1.175262604e-07
5.44450631e-10
1.175755627e-07
4.643684297e-10
1.176340236e-07
3.926975481e-10
1.177007416e-07
3.294916441e-10
1.177746617e-07
2.747917001e-10
1.17854567e-07
2.28635749e-10
1.179392733e-07
1.908343934e-10
1.180274139e-07
1.614096777e-10
1.181175583e-07
1.402617803e-10
1.182082226e-07
1.272557754e-10
1.222371191e-10
1.18297871e-07
1.095396394e-07
6.467198389e-10
1.099375777e-07
1.302991003e-09
1.104498869e-07
1.881554658e-09
1.110222334e-07
2.364753718e-09
1.116282662e-07
2.762278689e-09
1.122522212e-07
3.087390354e-09
1.128805066e-07
3.348202529e-09
1.135021483e-07
3.550710512e-09
1.141094059e-07
3.7010842e-09
1.146968717e-07
3.805348834e-09
1.152605707e-07
3.868797471e-09
1.15797575e-07
3.895999912e-09
1.16305857e-07
3.891024802e-09
1.167841753e-07
3.857580821e-09
1.172319711e-07
3.799079192e-09
1.176492853e-07
3.718675448e-09
1.180366875e-07
3.619304953e-09
1.183952083e-07
3.503707664e-09
1.187262715e-07
3.374441675e-09
1.190316248e-07
3.233889306e-09
1.193132726e-07
3.084259627e-09
1.195734095e-07
2.927589988e-09
1.19814358e-07
2.765746802e-09
1.200385097e-07
2.600428192e-09
1.202482722e-07
2.433168442e-09
1.204460218e-07
2.265344444e-09
1.206340627e-07
2.098184286e-09
1.208145924e-07
1.932777688e-09
1.209896737e-07
1.770087761e-09
1.211612123e-07
1.610963487e-09
1.2133094e-07
1.456152497e-09
1.215004028e-07
1.306313713e-09
1.216709526e-07
1.16202949e-09
1.218437431e-07
1.023816924e-09
1.220197287e-07
8.921375479e-10
1.221996644e-07
7.674072086e-10
1.223841094e-07
6.500015456e-10
1.225734399e-07
5.402531653e-10
1.227678365e-07
4.384856422e-10
1.229672881e-07
3.44999047e-10
1.231716324e-07
2.600240845e-10
1.233805665e-07
1.837634533e-10
1.235936449e-07
1.1641326e-10
1.238103196e-07
5.811692221e-11
1.240297498e-07
9.205624366e-12
1.242516101e-07
-3.102591361e-11
1.244747167e-07
-6.169696143e-11
1.246978997e-07
-8.292124152e-11
1.249199166e-07
-9.476113188e-11
-9.730700895e-11
1.251394607e-07
1.094683959e-07
5.08323953e-10
1.097415651e-07
1.029821731e-09
1.101162495e-07
1.506870224e-09
1.105580179e-07
1.922985285e-09
1.110435391e-07
2.27675751e-09
1.115579421e-07
2.572987303e-09
1.120898445e-07
2.816300216e-09
1.126300113e-07
3.010543776e-09
1.131713924e-07
3.159703234e-09
1.137087734e-07
3.267967902e-09
1.142382093e-07
3.339361586e-09
1.147566419e-07
3.377567346e-09
1.152617102e-07
3.385956459e-09
1.157516405e-07
3.367650536e-09
1.162251634e-07
3.325556234e-09
1.166814526e-07
3.262386236e-09
1.17120079e-07
3.180678533e-09
1.175409737e-07
3.082812949e-09
1.179443928e-07
2.971022592e-09
1.183308813e-07
2.84740072e-09
1.187012361e-07
2.713904762e-09
1.190564671e-07
2.572358978e-09
1.193977573e-07
2.424456603e-09
1.19726423e-07
2.271762477e-09
1.200438749e-07
2.115716622e-09
1.203515803e-07
1.957639019e-09
1.20651029e-07
1.798735706e-09
1.209437006e-07
1.640106107e-09
1.212310372e-07
1.482751309e-09
1.215144178e-07
1.327582961e-09
1.21795138e-07
1.175432391e-09
1.220743923e-07
1.027059462e-09
1.223532607e-07
8.831611707e-10
1.226326944e-07
7.443832619e-10
1.229135135e-07
6.113184729e-10
1.231963899e-07
4.845308088e-10
1.234818405e-07
3.645509258e-10
1.237702692e-07
2.518245198e-10
1.240618925e-07
1.46862302e-10
1.243567716e-07
5.011996815e-11
1.246548302e-07
-3.803449556e-11
1.249558685e-07
-1.172748476e-10
1.252595736e-07
-1.872918135e-10
1.255654871e-07
-2.477965713e-10
1.258732092e-07
-2.985164665e-10
1.261815562e-07
-3.393728727e-10
1.264900061e-07
-3.701468515e-10
1.267978514e-07
-3.907666263e-10
1.271043084e-07
-4.012180973e-10
-4.01533102e-10
1.274085344e-07
1.094296076e-07
4.087162865e-10
1.096291618e-07
8.302675704e-10
1.099120279e-07
1.224004119e-09
1.102577023e-07
1.577310891e-09
1.106489241e-07
1.885535674e-09
1.110729954e-07
2.148916025e-09
1.11520081e-07
2.369214698e-09
1.119821208e-07
2.54850413e-09
1.124526296e-07
2.689194447e-09
1.12926559e-07
2.794038577e-09
1.134000047e-07
2.865915956e-09
1.138699247e-07
2.907647354e-09
1.143339507e-07
2.921930353e-09
1.147902666e-07
2.911334654e-09
1.152375182e-07
2.878304627e-09
1.156747446e-07
2.825159906e-09
1.161013252e-07
2.754097957e-09
1.165169394e-07
2.667198713e-09
1.169215328e-07
2.566429132e-09
1.173152869e-07
2.453646611e-09
1.176985901e-07
2.330601483e-09
1.180720099e-07
2.198939111e-09
1.184362645e-07
2.060202053e-09
1.187921943e-07
1.915832663e-09
1.191407346e-07
1.767176397e-09
1.194828876e-07
1.61548598e-09
1.198196969e-07
1.461926466e-09
1.201522219e-07
1.307581131e-09
1.204815152e-07
1.153457967e-09
1.208086017e-07
1.000496552e-09
1.211344586e-07
8.495755145e-10
1.214599981e-07
7.015199652e-10
1.217860614e-07
5.57097821e-10
1.221133805e-07
4.170642207e-10
1.224425983e-07
2.821006069e-10
1.227741985e-07
1.52930616e-10
1.231084223e-07
3.032717554e-11
1.234453851e-07
-8.51382908e-11
1.237852594e-07
-1.930119295e-10
1.24128215e-07
-2.928356148e-10
1.244742616e-07
-3.840811107e-10
1.248232213e-07
-4.662345731e-10
1.251747933e-07
-5.388637127e-10
1.255285776e-07
-6.015807931e-10
1.258841074e-07
-6.540462506e-10
1.262407181e-07
-6.959836028e-10
1.265977484e-07
-7.271771848e-10
1.269544476e-07
-7.474658464e-10
1.273099931e-07
-7.567635968e-10
-7.55054062e-10
1.27663514e-07
1.094057091e-07
3.33007204e-10
1.095584845e-07
6.774921819e-10
1.097792032e-07
1.00328541e-09
1.100555047e-07
1.301009441e-09
1.103753549e-07
1.565685438e-09
1.107286626e-07
1.795608475e-09
1.111071285e-07
1.990748837e-09
1.115037888e-07
2.151843881e-09
1.119128387e-07
2.280144606e-09
1.12329559e-07
2.37731834e-09
1.127501773e-07
2.445297604e-09
1.131716966e-07
2.486128061e-09
1.135917508e-07
2.501876173e-09
1.140084989e-07
2.494586567e-09
1.144205436e-07
2.466259941e-09
1.148268656e-07
2.418837995e-09
1.152267701e-07
2.354193462e-09
1.156198442e-07
2.274124622e-09
1.160059207e-07
2.180352623e-09
1.163850471e-07
2.074520195e-09
1.167574574e-07
1.958191168e-09
1.171235458e-07
1.8328507e-09
1.174838416e-07
1.69990625e-09
1.178389849e-07
1.560689353e-09
1.18189703e-07
1.416458222e-09
1.185367878e-07
1.268401198e-09
1.188810733e-07
1.117640919e-09
1.192234153e-07
9.652391763e-10
1.195646701e-07
8.122030756e-10
1.199056773e-07
6.594893031e-10
1.202472414e-07
5.08011471e-10
1.205900986e-07
3.586627477e-10
1.209349197e-07
2.122766751e-10
1.212821551e-07
6.982890664e-11
1.216321057e-07
-6.784999934e-11
1.219851678e-07
-2.001315009e-10
1.223419429e-07
-3.26447796e-10
1.227028407e-07
-4.460361469e-10
1.230679841e-07
-5.581552294e-10
1.234372922e-07
-6.621436824e-10
1.238105872e-07
-7.573761233e-10
1.241876116e-07
-8.432589853e-10
1.24567993e-07
-9.192449843e-10
1.249512472e-07
-9.848350013e-10
1.253367866e-07
-1.039585565e-09
1.257239215e-07
-1.083118523e-09
1.261118738e-07
-1.115129545e-09
1.264997927e-07
-1.135384705e-09
1.268867613e-07
-1.143732253e-09
-1.140105802e-09
1.272718131e-07
1.093898177e-07
2.7318952e-10
1.095110005e-07
5.563094721e-10
1.096881179e-07
8.261680271e-10
1.099134007e-07
1.075726595e-09
1.101785503e-07
1.300535943e-09
1.104759024e-07
1.498256419e-09
1.107987402e-07
1.667911044e-09
1.111412291e-07
1.809355082e-09
1.114983504e-07
1.923023292e-09
1.118658716e-07
2.00979718e-09
1.122402895e-07
2.070879665e-09
1.126187427e-07
2.107674852e-09
1.129989208e-07
2.121698125e-09
1.133789876e-07
2.11451976e-09
1.137575181e-07
2.087729487e-09
1.141334443e-07
2.042911873e-09
1.145060092e-07
1.981628672e-09
1.148747271e-07
1.905406668e-09
1.152393501e-07
1.815729633e-09
1.155998372e-07
1.71403308e-09
1.159563274e-07
1.601700967e-09
1.163091141e-07
1.480063923e-09
1.166586216e-07
1.350398783e-09
1.170053816e-07
1.213929279e-09
1.173500121e-07
1.071827714e-09
1.176931956e-07
9.25217618e-10
1.180356584e-07
7.751781011e-10
1.183781522e-07
6.227452911e-10
1.187214297e-07
4.689255628e-10
1.190662206e-07
3.146983419e-10
1.194132067e-07
1.610253525e-10
1.197629076e-07
8.961901138e-12
1.201156616e-07
-1.404773406e-10
1.204722873e-07
-2.867967501e-10
1.208335314e-07
-4.290940584e-10
1.211998438e-07
-5.664437799e-10
1.215713953e-07
-6.979992591e-10
1.219482932e-07
-8.229340522e-10
1.223305793e-07
-9.404412347e-10
1.227181717e-07
-1.049736123e-09
1.231108587e-07
-1.150063095e-09
1.235083009e-07
-1.240701132e-09
1.239100292e-07
-1.320973206e-09
1.243154512e-07
-1.390256985e-09
1.247238601e-07
-1.447994488e-09
1.251344433e-07
-1.493701656e-09
1.255462906e-07
-1.526976918e-09
1.259584131e-07
-1.547507229e-09
1.263697563e-07
-1.555075342e-09
-1.549564974e-09
1.267792155e-07
1.09378612e-07
2.245775305e-10
1.094773252e-07
4.575963184e-10
1.096226842e-07
6.808091135e-10
1.098095911e-07
8.888197191e-10
1.100322719e-07
1.077855164e-09
1.102850155e-07
1.245512808e-09
1.10562527e-07
1.390399608e-09
1.108600281e-07
1.511853941e-09
1.111732821e-07
1.609769343e-09
1.114986048e-07
1.684474456e-09
1.11832855e-07
1.736629418e-09
1.121733989e-07
1.767130914e-09
1.125180619e-07
1.777035159e-09
1.128650798e-07
1.767501875e-09
1.132130546e-07
1.739754761e-09
1.135609138e-07
1.695052706e-09
1.139078742e-07
1.63466834e-09
1.142534086e-07
1.559872257e-09
1.145972165e-07
1.471921712e-09
1.149391969e-07
1.3720527e-09
1.152794232e-07
1.261474598e-09
1.156181202e-07
1.141366848e-09
1.159556417e-07
1.012877254e-09
1.162924492e-07
8.771217976e-10
1.166290903e-07
7.35186567e-10
1.169661813e-07
5.88126552e-10
1.173043786e-07
4.36980842e-10
1.176443619e-07
2.827619676e-10
1.179867784e-07
1.265090585e-10
1.183321503e-07
-3.067357738e-11
1.18681049e-07
-1.878733647e-10
1.190344042e-07
-3.443932271e-10
1.193930849e-07
-4.991579519e-10
1.197575014e-07
-6.512131798e-10
1.201280118e-07
-7.99604417e-10
1.205049484e-07
-9.43380298e-10
1.208885452e-07
-1.081596003e-09
1.2127892e-07
-1.213308782e-09
1.2167606e-07
-1.337581264e-09
1.220798139e-07
-1.453489938e-09
1.224898881e-07
-1.560137307e-09
1.229058488e-07
-1.656661871e-09
1.233271244e-07
-1.742248711e-09
1.23753009e-07
-1.816141639e-09
1.2418267e-07
-1.877655436e-09
1.246151563e-07
-1.92618797e-09
1.250494111e-07
-1.961231708e-09
1.254842878e-07
-1.982383918e-09
1.259185679e-07
-1.98935534e-09
-1.981976866e-09
1.263509798e-07
1.093703521e-07
1.842254607e-10
1.094524177e-07
3.7553071e-10
1.095738809e-07
5.593459313e-10
1.097312649e-07
7.314357731e-10
1.099204783e-07
8.88641745e-10
1.101372729e-07
1.028718179e-09
1.103775271e-07
1.150145483e-09
1.10637388e-07
1.251993036e-09
1.109133422e-07
1.333815094e-09
1.112022549e-07
1.395561741e-09
1.115013862e-07
1.43749804e-09
1.118083864e-07
1.460130667e-09
1.121212761e-07
1.464145422e-09
1.124384202e-07
1.450357821e-09
1.127584997e-07
1.419675252e-09
1.130804844e-07
1.373068004e-09
1.134036059e-07
1.311546925e-09
1.137273317e-07
1.236146371e-09
1.14051342e-07
1.147911461e-09
1.143755058e-07
1.047888802e-09
1.146998604e-07
9.371199269e-10
1.150245901e-07
8.166370981e-10
1.153500055e-07
6.874618325e-10
1.156765266e-07
5.506007049e-10
1.160046533e-07
4.070598729e-10
1.163349555e-07
2.578243895e-10
1.166680058e-07
1.039305648e-10
1.170043214e-07
-5.355357541e-11
1.173445682e-07
-2.13737737e-10
1.176897116e-07
-3.758168992e-10
1.180405543e-07
-5.3871592e-10
1.183976017e-07
-7.014405529e-10
1.187614199e-07
-8.629761252e-10
1.191325161e-07
-1.022309263e-09
1.195113224e-07
-1.178410641e-09
1.198981714e-07
-1.330229181e-09
1.202932725e-07
-1.476697155e-09
1.206967024e-07
-1.61673868e-09
1.211083982e-07
-1.749276989e-09
1.215281518e-07
-1.873243562e-09
1.21955604e-07
-1.98758953e-09
1.223902403e-07
-2.091298141e-09
1.228313902e-07
-2.183398582e-09
1.232782299e-07
-2.262981335e-09
1.237297888e-07
-2.329214348e-09
1.241849601e-07
-2.381359235e-09
1.246425152e-07
-2.41878677e-09
1.251011222e-07
-2.440990868e-09
1.255593672e-07
-2.447600396e-09
-2.438388151e-09
1.260157785e-07
1.093640447e-07
1.501808277e-10
1.094333554e-07
3.062200056e-10
1.095363151e-07
4.563862435e-10
1.096704726e-07
5.972782232e-10
1.098328697e-07
7.262446581e-10
1.100203271e-07
8.412607042e-10
1.102296509e-07
9.408217247e-10
1.104577643e-07
1.023879624e-09
1.107017907e-07
1.089788583e-09
1.109591058e-07
1.138246649e-09
1.112273673e-07
1.169236488e-09
1.115045276e-07
1.182970216e-09
1.117888324e-07
1.179840639e-09
1.120788098e-07
1.160380321e-09
1.123732567e-07
1.125228375e-09
1.126712208e-07
1.075103823e-09
1.129719833e-07
1.010784395e-09
1.132750398e-07
9.330898578e-10
1.13580082e-07
8.428692051e-10
1.138869796e-07
7.409911886e-10
1.141957612e-07
6.283382947e-10
1.145065997e-07
5.057985962e-10
1.148197836e-07
3.742779345e-10
1.151357135e-07
2.346708536e-10
1.15454834e-07
8.793938447e-11
1.15777592e-07
-6.493357387e-11
1.161046412e-07
-2.231185126e-10
1.16436878e-07
-3.857902777e-10
1.167750661e-07
-5.519257197e-10
1.171198016e-07
-7.205522785e-10
1.174717535e-07
-8.906677378e-10
1.178315701e-07
-1.061257029e-09
1.181998623e-07
-1.231268272e-09
1.185771628e-07
-1.399609683e-09
1.18963907e-07
-1.565154813e-09
1.193604214e-07
-1.726743578e-09
1.197669106e-07
-1.883186342e-09
1.201834429e-07
-2.033270996e-09
1.20609937e-07
-2.175771098e-09
1.210461497e-07
-2.309456276e-09
1.214916658e-07
-2.433105619e-09
1.219458914e-07
-2.545523685e-09
1.224080514e-07
-2.645558613e-09
1.228771921e-07
-2.732122003e-09
1.233521877e-07
-2.804209898e-09
1.238317525e-07
-2.860924023e-09
1.243144581e-07
-2.901492292e-09
1.247987548e-07
-2.925287573e-09
1.25282998e-07
-2.931843685e-09
-2.920867658e-09
1.257654775e-07
1.093590841e-07
1.210967489e-10
1.094183403e-07
2.469638106e-10
1.095066022e-07
3.68124335e-10
1.096220937e-07
4.817867015e-10
1.097626346e-07
5.857037887e-10
1.09925824e-07
6.780712818e-10
1.101091853e-07
7.574603956e-10
1.103102738e-07
8.227910588e-10
1.105267545e-07
8.733078967e-10
1.107564558e-07
9.085452335e-10
1.10997406e-07
9.28286224e-10
1.112478537e-07
9.325224272e-10
1.115062772e-07
9.214169907e-10
1.117713853e-07
8.952722088e-10
1.120421116e-07
8.545019378e-10
1.123176068e-07
7.996085627e-10
1.125972271e-07
7.311640892e-10
1.12880522e-07
6.497949283e-10
1.131672201e-07
5.561710046e-10
1.134572184e-07
4.509928703e-10
1.137505559e-07
3.350008194e-10
1.140474177e-07
2.089368222e-10
1.143480697e-07
7.362590631e-11
1.146528288e-07
-7.008811917e-11
1.149622493e-07
-2.214810852e-10
1.152771034e-07
-3.797875497e-10
1.155980756e-07
-5.440905663e-10
1.159257845e-07
-7.134990722e-10
1.162609453e-07
-8.870863457e-10
1.166042922e-07
-1.06389912e-09
1.169565599e-07
-1.242935431e-09
1.173184435e-07
-1.423140509e-09
1.17690581e-07
-1.60340576e-09
1.180735389e-07
-1.782567543e-09
1.184677927e-07
-1.959408603e-09
1.188737083e-07
-2.132659256e-09
1.192915225e-07
-2.301000476e-09
1.197213219e-07
-2.463070413e-09
1.201630249e-07
-2.617474082e-09
1.20616365e-07
-2.762796333e-09
1.210808777e-07
-2.897618333e-09
1.215558915e-07
-3.020537419e-09
1.220405228e-07
-3.130189924e-09
1.225336773e-07
-3.225276444e-09
1.230340563e-07
-3.304588813e-09
1.2354017e-07
-3.367037751e-09
1.240503577e-07
-3.411679954e-09
1.245628133e-07
-3.437743212e-09
1.250756176e-07
-3.444648108e-09
-3.432024862e-09
1.255867748e-07
1.093550819e-07
9.601485027e-11
1.094062125e-07
1.958332338e-10
1.094825282e-07
2.918086308e-10
1.095827128e-07
3.816021302e-10
1.097051321e-07
4.632844504e-10
1.098479554e-07
5.352480213e-10
1.100092562e-07
5.96159556e-10
1.10187096e-07
6.449512165e-10
1.103795902e-07
6.80813638e-10
1.105849585e-07
7.031768804e-10
1.108015611e-07
7.116835795e-10
1.11027923e-07
7.061603718e-10
1.112627493e-07
6.865905519e-10
1.115049321e-07
6.530893495e-10
1.117535519e-07
6.058820093e-10
1.120078756e-07
5.452848209e-10
1.122673503e-07
4.716893774e-10
1.125315996e-07
3.855456302e-10
1.128004017e-07
2.873688612e-10
1.130737033e-07
1.776913249e-10
1.133515558e-07
5.714835188e-11
1.136341003e-07
-7.360773429e-11
1.139217332e-07
-2.140068666e-10
1.142150488e-07
-3.634036934e-10
1.145146065e-07
-5.210386187e-10
1.148209765e-07
-6.861574483e-10
1.151348511e-07
-8.579651016e-10
1.154569829e-07
-1.035630795e-09
1.157881647e-07
-1.218268076e-09
1.16129195e-07
-1.404929394e-09
1.164808618e-07
-1.594602237e-09
1.16843926e-07
-1.786204684e-09
1.172191023e-07
-1.978582037e-09
1.176070381e-07
-2.170503335e-09
1.18008289e-07
-2.360659533e-09
1.184232937e-07
-2.547663954e-09
1.188523488e-07
-2.730055587e-09
1.192955845e-07
-2.906306059e-09
1.197529411e-07
-3.074830617e-09
1.202241481e-07
-3.234003282e-09
1.207087062e-07
-3.382176436e-09
1.212058737e-07
-3.517704885e-09
1.217146579e-07
-3.638974128e-09
1.222338138e-07
-3.744432261e-09
1.227618496e-07
-3.832624575e-09
1.232970414e-07
-3.902229578e-09
1.238374562e-07
-3.952094799e-09
1.243809834e-07
-3.981270449e-09
1.249253742e-07
-3.98903891e-09
-3.974937974e-09
1.254682873e-07
1.093517783e-07
7.423660804e-11
1.093961931e-07
1.514184008e-10
1.094625916e-07
2.254101965e-10
1.0954998e-07
2.942136958e-10
1.09657116e-07
3.561485139e-10
1.097825902e-07
4.097738275e-10
1.099248981e-07
4.538515823e-10
1.100825032e-07
4.873461017e-10
1.102538906e-07
5.094261592e-10
1.104376114e-07
5.194560765e-10
1.106323159e-07
5.16978957e-10
1.108367791e-07
5.016971376e-10
1.110499175e-07
4.734520747e-10
1.112708004e-07
4.32206375e-10
1.11498656e-07
3.780263406e-10
1.117328733e-07
3.110674959e-10
1.119729929e-07
2.315698372e-10
1.122187295e-07
1.398089977e-10
1.124699105e-07
3.618797942e-11
1.127264783e-07
-7.887649212e-11
1.129886382e-07
-2.050115581e-10
1.13256769e-07
-3.417384764e-10
1.135312604e-07
-4.88498245e-10
1.138125744e-07
-6.44717666e-10
1.141013151e-07
-8.097791936e-10
1.143981817e-07
-9.830239553e-10
1.147039516e-07
-1.163734973e-09
1.150194522e-07
-1.35113144e-09
1.153455474e-07
-1.544363254e-09
1.156831225e-07
-1.742504495e-09
1.16033067e-07
-1.944546799e-09
1.163962542e-07
-2.149391829e-09
1.167735164e-07
-2.355844333e-09
1.171656196e-07
-2.562606537e-09
1.175732347e-07
-2.768274615e-09
1.179969087e-07
-2.971337923e-09
1.184370347e-07
-3.170181568e-09
1.188938218e-07
-3.363093094e-09
1.193672653e-07
-3.548273985e-09
1.198571186e-07
-3.72385655e-09
1.203628688e-07
-3.887926652e-09
1.208837165e-07
-4.038552497e-09
1.214185616e-07
-4.173819331e-09
1.219659988e-07
-4.291869469e-09
1.225243208e-07
-4.390946567e-09
1.230915337e-07
-4.469442544e-09
1.236653839e-07
-4.525945012e-09
1.242433961e-07
-4.559282583e-09
1.248229224e-07
-4.568565132e-09
-4.553216033e-09
1.254012005e-07
1.093489932e-07
5.52434098e-11
1.093877416e-07
1.126700853e-10
1.094457427e-07
1.674091022e-10
1.095222351e-07
2.17721277e-10
1.096162626e-07
2.621210628e-10
1.097267311e-07
2.993052492e-10
1.098524607e-07
3.281220186e-10
1.099922326e-07
3.475741863e-10
1.10144833e-07
3.568257559e-10
1.103090898e-07
3.551992447e-10
1.104839028e-07
3.421659666e-10
1.106682664e-07
3.173334253e-10
1.108612908e-07
2.804277284e-10
1.110622081e-07
2.312890357e-10
1.112703861e-07
1.69848405e-10
1.114853397e-07
9.61138863e-11
1.117066983e-07
1.021125239e-11
1.119342099e-07
-8.770254319e-11
1.121678829e-07
-1.974849082e-10
1.124078637e-07
-3.188573416e-10
1.126543454e-07
-4.514932249e-10
1.129076386e-07
-5.950316783e-10
1.13168206e-07
-7.490655965e-10
1.134366311e-07
-9.131427693e-10
1.137136056e-07
-1.086753666e-09
1.139999084e-07
-1.269326742e-09
1.142963963e-07
-1.460222862e-09
1.14603993e-07
-1.658728182e-09
1.149236757e-07
-1.864046007e-09
1.152564581e-07
-2.075286932e-09
1.156033697e-07
-2.291458429e-09
1.159654324e-07
-2.511454484e-09
1.163436339e-07
-2.734045937e-09
1.167388996e-07
-2.957872188e-09
1.1715206e-07
-3.181434956e-09
1.17583817e-07
-3.4030949e-09
1.180347075e-07
-3.621072064e-09
1.185050656e-07
-3.833451151e-09
1.189949844e-07
-4.038192707e-09
1.19504279e-07
-4.233151164e-09
1.200324529e-07
-4.416100531e-09
1.205786686e-07
-4.58476824e-09
1.211417265e-07
-4.736877261e-09
1.21720053e-07
-4.870195999e-09
1.223117012e-07
-4.982594797e-09
1.229143657e-07
-5.072107083e-09
1.235254131e-07
-5.136992381e-09
1.241419283e-07
-5.175797627e-09
1.247607759e-07
-5.187412615e-09
-5.171115168e-09
1.253786751e-07
1.093465985e-07
3.86449214e-11
1.09380472e-07
7.879657661e-11
1.094312285e-07
1.166526578e-10
1.09498277e-07
1.506727627e-10
1.095808739e-07
1.795241251e-10
1.096781636e-07
2.020155514e-10
1.097892163e-07
2.17069302e-10
1.099130646e-07
2.237258425e-10
1.100487384e-07
2.211520592e-10
1.101952956e-07
2.086420527e-10
1.103518455e-07
1.856160903e-10
1.105175681e-07
1.516108583e-10
1.106917519e-07
1.062440014e-10
1.108737745e-07
4.926647381e-11
1.110631164e-07
-1.949342433e-11
1.112593875e-07
-1.001571002e-10
1.114624074e-07
-1.928085803e-10
1.116721025e-07
-2.973976569e-10
1.11888466e-07
-4.138483583e-10
1.121116377e-07
-5.420290651e-10
1.123419058e-07
-6.817613727e-10
1.12579693e-07
-8.328189131e-10
1.128255481e-07
-9.949206363e-10
1.130801334e-07
-1.167728082e-09
1.133442206e-07
-1.350840929e-09
1.136186847e-07
-1.543790828e-09
1.139044953e-07
-1.746033544e-09
1.142027059e-07
-1.956938819e-09
1.145144386e-07
-2.175778732e-09
1.148408666e-07
-2.401714929e-09
1.151831934e-07
-2.633785151e-09
1.155426284e-07
-2.870889525e-09
1.159203596e-07
-3.111777134e-09
1.16317521e-07
-3.355033603e-09
1.167351567e-07
-3.599070599e-09
1.171741801e-07
-3.842118323e-09
1.176353303e-07
-4.082222248e-09
1.181191246e-07
-4.317245504e-09
1.186258103e-07
-4.544878361e-09
1.191553154e-07
-4.762656314e-09
1.197072029e-07
-4.967988057e-09
1.20280629e-07
-5.158194389e-09
1.208743103e-07
-5.3305586e-09
1.214865024e-07
-5.482388175e-09
1.221149943e-07
-5.611086695e-09
1.227571209e-07
-5.714233593e-09
1.234097969e-07
-5.789668214e-09
1.240695727e-07
-5.83557331e-09
1.247327123e-07
-5.850552088e-09
-5.833692265e-09
1.253952894e-07
1.093445002e-07
2.414476688e-11
1.093741042e-07
4.919252385e-11
1.094185001e-07
7.225676684e-11
1.094772258e-07
9.194697104e-11
1.095496965e-07
1.07053396e-10
1.096352367e-07
1.164753588e-10
1.097331105e-07
1.191954877e-10
1.098425482e-07
1.142881344e-10
1.099627731e-07
1.009272312e-10
1.100930436e-07
7.837162776e-11
1.102326404e-07
4.601942637e-11
1.103808906e-07
3.360766373e-12
1.105372281e-07
-5.009345065e-11
1.107011701e-07
-1.14675488e-10
1.108723805e-07
-1.907036733e-10
1.110506039e-07
-2.783804451e-10
1.112356656e-07
-3.778702524e-10
1.114275414e-07
-4.892733972e-10
1.116263369e-07
-6.126439546e-10
1.118322935e-07
-7.479856475e-10
1.120457826e-07
-8.952505992e-10
1.122673028e-07
-1.054339102e-09
1.124974793e-07
-1.225097166e-09
1.127370637e-07
-1.407312449e-09
1.129869309e-07
-1.600708171e-09
1.132480746e-07
-1.804934514e-09
1.13521599e-07
-2.019557972e-09
1.138087089e-07
-2.244048747e-09
1.141106965e-07
-2.477766368e-09
1.144289253e-07
-2.719943724e-09
1.147648099e-07
-2.969669746e-09
1.151197916e-07
-3.225871185e-09
1.154953085e-07
-3.487294061e-09
1.158927606e-07
-3.752485647e-09
1.16313468e-07
-4.019778031e-09
1.167586242e-07
-4.287274579e-09
1.172292428e-07
-4.552840881e-09
1.177260992e-07
-4.814102017e-09
1.182496689e-07
-5.068448185e-09
1.188000634e-07
-5.31305086e-09
1.19376967e-07
-5.544891612e-09
1.19979578e-07
-5.760805434e-09
1.206065594e-07
-5.957539922e-09
1.21256002e-07
-6.13183078e-09
1.219254082e-07
-6.28049284e-09
1.226116988e-07
-6.40052411e-09
1.233112491e-07
-6.489218361e-09
1.240199557e-07
-6.54427974e-09
1.247333347e-07
-6.563930956e-09
-6.547005285e-09
1.254466477e-07
1.093426186e-07
1.152612826e-11
1.093684174e-07
2.339372059e-11
1.09407125e-07
3.354907942e-11
1.094584017e-07
4.06702806e-11
1.095217693e-07
4.368568465e-11
1.095966869e-07
4.155774255e-11
1.096825709e-07