/*--------------------------------*- C++ -*----------------------------------*\
| =========                 |                                                 |
| \\      /  F ield         | foam-extend: Open Source CFD                    |
|  \\    /   O peration     | Version:     4.1                                |
|   \\  /    A nd           | Web:         http://www.foam-extend.org         |
|    \\/     M anipulation  |                                                 |
\*---------------------------------------------------------------------------*/
FoamFile
{
    version     2.0;
    format      ascii;
    class       volVectorField;
    location    "500000";
    object      U;
}
// * * * * * * * * * * * * * * * * * * * * * * * * * * * * * * * * * * * * * //

dimensions      [0 1 -1 0 0 0 0];

internalField   nonuniform List<vector> 
15920
(
(0.0002132663808 5.228083924e-06 0)
(0.0002061050866 1.147591221e-05 0)
(0.0001960991427 1.385465691e-05 0)
(0.0001826047976 1.427697542e-05 0)
(0.0001682520626 1.377343467e-05 0)
(0.0001547114391 1.265716304e-05 0)
(0.0001422298007 1.111361809e-05 0)
(0.00013071643 9.368677261e-06 0)
(0.000120244 7.621536828e-06 0)
(0.0001109308613 5.997160787e-06 0)
(0.000102798139 4.560278832e-06 0)
(9.578034673e-05 3.339087852e-06 0)
(8.978178157e-05 2.337244082e-06 0)
(8.470177262e-05 1.540673432e-06 0)
(8.04368656e-05 9.250982368e-07 0)
(7.68824716e-05 4.625485265e-07 0)
(7.393788426e-05 1.253567372e-07 0)
(7.151039679e-05 -1.118115467e-07 0)
(6.95169851e-05 -2.710322655e-07 0)
(6.788461409e-05 -3.708572224e-07 0)
(6.655007547e-05 -4.264584815e-07 0)
(6.545954425e-05 -4.49982641e-07 0)
(6.456785452e-05 -4.509800315e-07 0)
(6.38376081e-05 -4.368579095e-07 0)
(6.323817735e-05 -4.132151634e-07 0)
(6.274471361e-05 -3.841670667e-07 0)
(6.233723389e-05 -3.52665171e-07 0)
(6.19997942e-05 -3.207670593e-07 0)
(6.171974459e-05 -2.898495148e-07 0)
(6.148706726e-05 -2.607746292e-07 0)
(6.129379713e-05 -2.340125155e-07 0)
(6.113337663e-05 -2.097090565e-07 0)
(6.100064201e-05 -1.875838163e-07 0)
(6.089142582e-05 -1.672771755e-07 0)
(6.080215308e-05 -1.485971364e-07 0)
(6.072959251e-05 -1.314028043e-07 0)
(6.067074268e-05 -1.155096555e-07 0)
(6.062275356e-05 -1.006991882e-07 0)
(6.058285567e-05 -8.674759254e-08 0)
(6.054830903e-05 -7.343340799e-08 0)
(6.05163744e-05 -6.053066096e-08 0)
(6.04843047e-05 -4.77979455e-08 0)
(6.044935384e-05 -3.497237921e-08 0)
(6.04088041e-05 -2.178669514e-08 0)
(6.036019276e-05 -8.046747073e-09 0)
(6.030078573e-05 6.106718622e-09 0)
(6.022785215e-05 2.054657744e-08 0)
(6.013879916e-05 3.526185215e-08 0)
(6.003117875e-05 5.027265186e-08 0)
(5.990267533e-05 6.555758476e-08 0)
(0.0002199575024 5.643549791e-06 0)
(0.0002248601584 1.288305104e-05 0)
(0.0002300051301 1.649582964e-05 0)
(0.0002337109817 1.840609128e-05 0)
(0.0002356692499 1.949735575e-05 0)
(0.0002360945297 1.988381984e-05 0)
(0.0002351618753 1.961502085e-05 0)
(0.0002330328527 1.883955978e-05 0)
(0.0002299384188 1.771787517e-05 0)
(0.000226140795 1.637295891e-05 0)
(0.0002218758155 1.489958939e-05 0)
(0.0002173355152 1.337696509e-05 0)
(0.0002126745582 1.186946604e-05 0)
(0.0002080169829 1.042518727e-05 0)
(0.0002034583235 9.076926167e-06 0)
(0.000199067502 7.844685322e-06 0)
(0.0001948907943 6.738193696e-06 0)
(0.0001909566403 5.759194866e-06 0)
(0.0001872799003 4.903599877e-06 0)
(0.0001838652766 4.163428892e-06 0)
(0.0001807100918 3.528411885e-06 0)
(0.0001778065422 2.987210057e-06 0)
(0.0001751434342 2.528296797e-06 0)
(0.0001727075922 2.14057406e-06 0)
(0.0001704848401 1.81369709e-06 0)
(0.0001684606338 1.538266442e-06 0)
(0.0001666205166 1.305954078e-06 0)
(0.0001649504495 1.109552901e-06 0)
(0.0001634370261 9.429559378e-07 0)
(0.0001620675921 8.010878821e-07 0)
(0.0001608303026 6.798109395e-07 0)
(0.0001597141393 5.758020603e-07 0)
(0.0001587089027 4.864784114e-07 0)
(0.0001578048922 4.098543758e-07 0)
(0.0001569929175 3.443774101e-07 0)
(0.0001562643877 2.888491647e-07 0)
(0.0001556112172 2.42370369e-07 0)
(0.0001550257057 2.042777721e-07 0)
(0.0001545004714 1.740864514e-07 0)
(0.0001540284093 1.51446412e-07 0)
(0.0001536026548 1.36109202e-07 0)
(0.0001532165473 1.278986398e-07 0)
(0.0001528635948 1.266826259e-07 0)
(0.0001525374227 1.32337652e-07 0)
(0.0001522317378 1.447248601e-07 0)
(0.0001519403128 1.636291005e-07 0)
(0.0001516572426 1.888199248e-07 0)
(0.0001513767668 2.200660768e-07 0)
(0.0001510932065 2.571139567e-07 0)
(0.0001508010207 2.996691742e-07 0)
(0.0002187089495 1.40894351e-06 0)
(0.0002200303265 4.273339065e-06 0)
(0.0002226784726 6.901736995e-06 0)
(0.0002259995651 9.265540233e-06 0)
(0.0002294946861 1.136118763e-05 0)
(0.0002329747422 1.307144275e-05 0)
(0.0002362834211 1.430788609e-05 0)
(0.0002392251224 1.507127258e-05 0)
(0.0002416501434 1.540891202e-05 0)
(0.00024349248 1.537982988e-05 0)
(0.0002447469605 1.504857113e-05 0)
(0.0002454426116 1.448417096e-05 0)
(0.0002456306623 1.375435875e-05 0)
(0.00024537702 1.29195346e-05 0)
(0.0002447537004 1.202968357e-05 0)
(0.0002438317132 1.112394167e-05 0)
(0.0002426769524 1.02314116e-05 0)
(0.0002413483578 9.372415434e-06 0)
(0.0002398971931 8.559966854e-06 0)
(0.0002383669282 7.801333026e-06 0)
(0.0002367935894 7.099514172e-06 0)
(0.0002352064459 6.45451431e-06 0)
(0.0002336288573 5.864356254e-06 0)
(0.000232079092 5.325867535e-06 0)
(0.0002305710848 4.835213528e-06 0)
(0.0002291152282 4.388285201e-06 0)
(0.000227719064 3.980992921e-06 0)
(0.0002263878295 3.609467886e-06 0)
(0.0002251249017 3.270183279e-06 0)
(0.00022393217 2.960017067e-06 0)
(0.0002228103452 2.676273586e-06 0)
(0.0002217592013 2.41667033e-06 0)
(0.0002207777461 2.179267302e-06 0)
(0.0002198643466 1.962483077e-06 0)
(0.0002190168785 1.765104258e-06 0)
(0.0002182328397 1.58621266e-06 0)
(0.0002175093924 1.425106902e-06 0)
(0.0002168433866 1.281249069e-06 0)
(0.0002162313922 1.154224945e-06 0)
(0.0002156697341 1.043708731e-06 0)
(0.0002151545187 9.494314551e-07 0)
(0.0002146816548 8.711534155e-07 0)
(0.0002142468667 8.086454974e-07 0)
(0.0002138457091 7.616689757e-07 0)
(0.0002134735982 7.299787661e-07 0)
(0.000213125858 7.133699314e-07 0)
(0.0002127977527 7.115829538e-07 0)
(0.0002124844678 7.242758512e-07 0)
(0.0002121811179 7.510377664e-07 0)
(0.0002118827868 7.913955066e-07 0)
(0.000218689911 1.523131551e-06 0)
(0.0002194379005 4.404245027e-06 0)
(0.0002207500344 6.814153056e-06 0)
(0.0002223713597 8.65519966e-06 0)
(0.0002241748662 1.003666496e-05 0)
(0.0002261549132 1.106949016e-05 0)
(0.0002283028698 1.180325912e-05 0)
(0.0002305513902 1.227061158e-05 0)
(0.0002328099154 1.250899499e-05 0)
(0.0002350022002 1.255417844e-05 0)
(0.0002370706122 1.243629617e-05 0)
(0.0002389699334 1.218286275e-05 0)
(0.000240667109 1.182091139e-05 0)
(0.0002421433651 1.137612024e-05 0)
(0.0002433934773 1.087171903e-05 0)
(0.0002444228317 1.032809443e-05 0)
(0.0002452443035 9.762696796e-06 0)
(0.0002458756705 9.189945078e-06 0)
(0.0002463374886 8.621216364e-06 0)
(0.0002466513552 8.065028713e-06 0)
(0.0002468386098 7.527387507e-06 0)
(0.0002469194792 7.012203302e-06 0)
(0.0002469125829 6.521711233e-06 0)
(0.0002468346862 6.056849986e-06 0)
(0.0002467006365 5.617644673e-06 0)
(0.0002465234347 5.203519332e-06 0)
(0.0002463143602 4.813525654e-06 0)
(0.0002460831105 4.446518542e-06 0)
(0.0002458379543 4.10129383e-06 0)
(0.000245585892 3.776691445e-06 0)
(0.0002453328108 3.471666079e-06 0)
(0.0002450836241 3.185330016e-06 0)
(0.0002448423923 2.916975421e-06 0)
(0.0002446124232 2.666098058e-06 0)
(0.0002443963618 2.432396706e-06 0)
(0.0002441962675 2.215737882e-06 0)
(0.0002440136708 2.016116436e-06 0)
(0.0002438496142 1.833626969e-06 0)
(0.0002437046851 1.668438168e-06 0)
(0.0002435790456 1.520765795e-06 0)
(0.0002434724579 1.390847562e-06 0)
(0.0002433843128 1.278923822e-06 0)
(0.0002433136456 1.185229073e-06 0)
(0.0002432591574 1.109934137e-06 0)
(0.00024321925 1.053182539e-06 0)
(0.0002431920506 1.015073541e-06 0)
(0.0002431754334 9.956110995e-07 0)
(0.0002431670402 9.946942701e-07 0)
(0.0002431643031 1.012126245e-06 0)
(0.0002431644764 1.047614714e-06 0)
(0.0002186272573 1.023319566e-06 0)
(0.0002190471377 2.977206979e-06 0)
(0.0002199064835 4.721529857e-06 0)
(0.0002210456307 6.201500285e-06 0)
(0.00022234803 7.424710041e-06 0)
(0.0002237570959 8.4094698e-06 0)
(0.0002252400098 9.160615045e-06 0)
(0.0002267616272 9.685216208e-06 0)
(0.0002282865332 1.000432225e-05 0)
(0.0002297883962 1.014703652e-05 0)
(0.0002312498246 1.014231971e-05 0)
(0.0002326571873 1.001676759e-05 0)
(0.0002339984439 9.795053595e-06 0)
(0.0002352641136 9.499694792e-06 0)
(0.0002364481937 9.150441373e-06 0)
(0.0002375479568 8.764051593e-06 0)
(0.0002385633354 8.354393607e-06 0)
(0.0002394964144 7.932640136e-06 0)
(0.0002403510046 7.50748985e-06 0)
(0.0002411321858 7.085445372e-06 0)
(0.0002418458433 6.671146448e-06 0)
(0.0002424982735 6.267719476e-06 0)
(0.0002430958845 5.877108754e-06 0)
(0.0002436449798 5.500373018e-06 0)
(0.0002441516095 5.137948121e-06 0)
(0.0002446214743 4.789857183e-06 0)
(0.0002450598716 4.4558699e-06 0)
(0.0002454716693 4.135627974e-06 0)
(0.0002458613015 3.828744868e-06 0)
(0.0002462327806 3.534880013e-06 0)
(0.0002465897188 3.253789204e-06 0)
(0.0002469353529 2.98535564e-06 0)
(0.0002472725691 2.729605598e-06 0)
(0.0002476039249 2.486712821e-06 0)
(0.0002479316707 2.256994287e-06 0)
(0.0002482577708 2.040894909e-06 0)
(0.0002485839188 1.838963914e-06 0)
(0.0002489115459 1.651830333e-06 0)
(0.0002492418213 1.480173413e-06 0)
(0.0002495756523 1.324700499e-06 0)
(0.0002499136893 1.18611669e-06 0)
(0.0002502563366 1.065088629e-06 0)
(0.0002506036917 9.623744631e-07 0)
(0.0002509555968 8.785231213e-07 0)
(0.0002513117014 8.140474502e-07 0)
(0.0002516713973 7.694036369e-07 0)
(0.0002520338362 7.449313942e-07 0)
(0.0002523979729 7.408425643e-07 0)
(0.0002527625783 7.572217455e-07 0)
(0.0002531262486 7.940232954e-07 0)
(0.0002186144151 7.978381808e-07 0)
(0.0002189262524 2.363082461e-06 0)
(0.0002195725532 3.821771508e-06 0)
(0.000220432384 5.107274758e-06 0)
(0.000221434469 6.191569354e-06 0)
(0.0002225390988 7.072995237e-06 0)
(0.0002237125367 7.756858814e-06 0)
(0.0002249200084 8.251621535e-06 0)
(0.0002261295384 8.572158625e-06 0)
(0.0002273167307 8.738770982e-06 0)
(0.0002284654799 8.77341558e-06 0)
(0.0002295657107 8.697561844e-06 0)
(0.0002306113603 8.531746832e-06 0)
(0.0002315996105 8.29523084e-06 0)
(0.000232530466 8.005373927e-06 0)
(0.000233406059 7.677181833e-06 0)
(0.0002342298819 7.323202707e-06 0)
(0.0002350062282 6.95364235e-06 0)
(0.0002357398379 6.576564306e-06 0)
(0.0002364356323 6.198134769e-06 0)
(0.0002370984937 5.822901433e-06 0)
(0.0002377330996 5.454083483e-06 0)
(0.0002383438183 5.093847457e-06 0)
(0.0002389346532 4.74355421e-06 0)
(0.0002395092184 4.403972711e-06 0)
(0.0002400707391 4.075460025e-06 0)
(0.0002406220688 3.758108349e-06 0)
(0.0002411657171 3.451863101e-06 0)
(0.0002417038798 3.15661603e-06 0)
(0.0002422384703 2.872275444e-06 0)
(0.00024277115 2.598816517e-06 0)
(0.0002433033574 2.336314995e-06 0)
(0.0002438363326 2.084967706e-06 0)
(0.0002443711379 1.845102175e-06 0)
(0.0002449086762 1.617179255e-06 0)
(0.0002454497035 1.401778291e-06 0)
(0.0002459948371 1.199586051e-06 0)
(0.0002465445548 1.011388598e-06 0)
(0.0002470991964 8.380332934e-07 0)
(0.0002476589531 6.803985421e-07 0)
(0.0002482238618 5.393913457e-07 0)
(0.0002487939576 4.159350577e-07 0)
(0.0002493687963 3.10768942e-07 0)
(0.0002499477944 2.247653894e-07 0)
(0.0002505305162 1.586734443e-07 0)
(0.0002511163326 1.131003189e-07 0)
(0.0002517044188 8.855473889e-08 0)
(0.0002522938248 8.542918941e-08 0)
(0.0002528834879 1.039767968e-07 0)
(0.0002534722396 1.443004473e-07 0)
(0.0002186052983 6.295844727e-07 0)
(0.000218842234 1.868987733e-06 0)
(0.0002193364004 3.037401e-06 0)
(0.0002199896602 4.086131956e-06 0)
(0.0002207662165 4.990191249e-06 0)
(0.0002216472848 5.743991908e-06 0)
(0.0002226054966 6.349176313e-06 0)
(0.0002236089498 6.809625412e-06 0)
(0.0002246293329 7.132647488e-06 0)
(0.000225644558 7.329657324e-06 0)
(0.000226638176 7.414641195e-06 0)
(0.0002275982829 7.402429162e-06 0)
(0.0002285167834 7.307846575e-06 0)
(0.0002293889743 7.145285428e-06 0)
(0.0002302131388 6.928248772e-06 0)
(0.0002309899806 6.668940217e-06 0)
(0.0002317219852 6.378042899e-06 0)
(0.0002324128551 6.064668209e-06 0)
(0.0002330670619 5.736396596e-06 0)
(0.0002336894881 5.399372424e-06 0)
(0.0002342851354 5.058443252e-06 0)
(0.0002348589038 4.717330606e-06 0)
(0.0002354154367 4.378813073e-06 0)
(0.0002359590269 4.044906068e-06 0)
(0.0002364935644 3.717029798e-06 0)
(0.0002370225173 3.396160969e-06 0)
(0.0002375489354 3.082964648e-06 0)
(0.0002380754681 2.777904683e-06 0)
(0.0002386043905 2.481333622e-06 0)
(0.0002391376332 2.19356448e-06 0)
(0.0002396768143 1.914926092e-06 0)
(0.0002402232701 1.645803423e-06 0)
(0.0002407780832 1.3866655e-06 0)
(0.0002413421088 1.138076432e-06 0)
(0.0002419159879 9.007263848e-07 0)
(0.0002425001688 6.753978677e-07 0)
(0.0002430949363 4.629555576e-07 0)
(0.0002437004452 2.643426469e-07 0)
(0.0002443166372 8.058135065e-08 0)
(0.0002449432904 -8.725515619e-08 0)
(0.0002455800464 -2.380735464e-07 0)
(0.0002462262393 -3.707721731e-07 0)
(0.0002468813708 -4.844222791e-07 0)
(0.000247544766 -5.779742159e-07 0)
(0.000248215311 -6.505152373e-07 0)
(0.0002488918024 -7.012860955e-07 0)
(0.0002495729682 -7.296387961e-07 0)
(0.0002502574232 -7.350569055e-07 0)
(0.0002509436837 -7.171820364e-07 0)
(0.0002516301946 -6.758277331e-07 0)
(0.0002185987964 5.0166257e-07 0)
(0.0002187852471 1.492301904e-06 0)
(0.0002191782569 2.436859219e-06 0)
(0.0002196904309 3.301428446e-06 0)
(0.0002203052165 4.064349073e-06 0)
(0.0002210172681 4.715807774e-06 0)
(0.0002218055166 5.252319996e-06 0)
(0.0002226423886 5.673725728e-06 0)
(0.0002235045453 5.983225184e-06 0)
(0.0002243743834 6.187557255e-06 0)
(0.0002252380671 6.296039932e-06 0)
(0.0002260845286 6.319264557e-06 0)
(0.0002269054456 6.268238557e-06 0)
(0.0002276952338 6.153927272e-06 0)
(0.0002284507787 5.986893706e-06 0)
(0.0002291710302 5.776966601e-06 0)
(0.0002298565842 5.533006883e-06 0)
(0.0002305092981 5.262795707e-06 0)
(0.000231131951 4.973010761e-06 0)
(0.0002317279477 4.669258899e-06 0)
(0.0002323010636 4.356150537e-06 0)
(0.0002328552361 4.037405237e-06 0)
(0.0002333944032 3.715975078e-06 0)
(0.0002339223842 3.394173278e-06 0)
(0.0002344427972 3.073799496e-06 0)
(0.0002349590044 2.756256715e-06 0)
(0.0002354740802 2.442656211e-06 0)
(0.0002359907962 2.133908721e-06 0)
(0.0002365116179 1.830801479e-06 0)
(0.0002370387093 1.534062022e-06 0)
(0.000237573943 1.244408504e-06 0)
(0.0002381189129 9.625906374e-07 0)
(0.0002386749417 6.894186519e-07 0)
(0.0002392431135 4.257730018e-07 0)
(0.0002398243095 1.726005907e-07 0)
(0.0002404191134 -6.904574874e-08 0)
(0.0002410278855 -2.980172651e-07 0)
(0.0002416507559 -5.131128004e-07 0)
(0.0002422876729 -7.130771367e-07 0)
(0.0002429383787 -8.96610848e-07 0)
(0.000243602391 -1.06241839e-06 0)
(0.0002442790084 -1.209246175e-06 0)
(0.0002449673824 -1.335748935e-06 0)
(0.0002456664749 -1.440800131e-06 0)
(0.0002463750107 -1.523328346e-06 0)
(0.0002470915699 -1.582349503e-06 0)
(0.0002478146002 -1.617034698e-06 0)
(0.0002485424102 -1.626731612e-06 0)
(0.0002492731948 -1.610978353e-06 0)
(0.0002500050708 -1.569516344e-06 0)
(0.0002185945202 4.030222054e-07 0)
(0.0002187471707 1.201469496e-06 0)
(0.0002190706675 1.969143708e-06 0)
(0.0002194821301 2.681003609e-06 0)
(0.0002199762129 3.318787351e-06 0)
(0.0002205572594 3.871975501e-06 0)
(0.0002212104139 4.335331754e-06 0)
(0.0002219125828 4.707045171e-06 0)
(0.0002226445142 4.98822379e-06 0)
(0.0002233921298 5.182698153e-06 0)
(0.0002241440115 5.296425167e-06 0)
(0.0002248903909 5.336671861e-06 0)
(0.0002256234711 5.311361206e-06 0)
(0.00022633767 5.228648481e-06 0)
(0.0002270294364 5.096602971e-06 0)
(0.0002276969137 4.922930046e-06 0)
(0.0002283396369 4.714756688e-06 0)
(0.0002289582745 4.478502737e-06 0)
(0.0002295543847 4.219826126e-06 0)
(0.0002301301871 3.943619574e-06 0)
(0.000230688358 3.654043732e-06 0)
(0.0002312318577 3.354587338e-06 0)
(0.000231763789 3.048145399e-06 0)
(0.0002322872853 2.737106447e-06 0)
(0.0002328054255 2.423441899e-06 0)
(0.0002333211696 2.108793228e-06 0)
(0.0002338373142 1.794553374e-06 0)
(0.0002343564609 1.481940596e-06 0)
(0.0002348809965 1.172061904e-06 0)
(0.0002354130807 8.659695849e-07 0)
(0.0002359546405 5.647057469e-07 0)
(0.0002365073752 2.693339678e-07 0)
(0.0002370727467 -1.903424352e-08 0)
(0.0002376519472 -2.992046784e-07 0)
(0.0002382459034 -5.699262269e-07 0)
(0.0002388553638 -8.298485024e-07 0)
(0.000239480829 -1.077527455e-06 0)
(0.0002401225359 -1.31145451e-06 0)
(0.0002407804827 -1.530083383e-06 0)
(0.0002414544206 -1.731841662e-06 0)
(0.0002421438498 -1.915144007e-06 0)
(0.0002428480233 -2.078417724e-06 0)
(0.0002435659546 -2.220125217e-06 0)
(0.0002442964273 -2.33884015e-06 0)
(0.0002450379974 -2.433233065e-06 0)
(0.0002457890129 -2.50210803e-06 0)
(0.0002465476398 -2.544449908e-06 0)
(0.0002473118843 -2.559448837e-06 0)
(0.0002480796225 -2.546518311e-06 0)
(0.0002488486347 -2.505313777e-06 0)
(0.0002185914348 3.244933056e-07 0)
(0.0002187196684 9.690372836e-07 0)
(0.0002189925073 1.592318663e-06 0)
(0.0002193293579 2.175549979e-06 0)
(0.000219732102 2.704121063e-06 0)
(0.0002202119289 3.168569507e-06 0)
(0.0002207588692 3.563294197e-06 0)
(0.0002213534632 3.885453752e-06 0)
(0.0002219796135 4.134553649e-06 0)
(0.0002226259864 4.312250564e-06 0)
(0.000223283255 4.421988207e-06 0)
(0.0002239430091 4.468480072e-06 0)
(0.0002245982093 4.457223282e-06 0)
(0.000225243586 4.394129688e-06 0)
(0.0002258755455 4.285243143e-06 0)
(0.0002264918949 4.136503619e-06 0)
(0.0002270916149 3.953558083e-06 0)
(0.0002276746834 3.74163001e-06 0)
(0.0002282419009 3.50544562e-06 0)
(0.0002287947131 3.24920443e-06 0)
(0.0002293350449 2.976582745e-06 0)
(0.0002298651571 2.690761826e-06 0)
(0.0002303875261 2.394474486e-06 0)
(0.0002309047446 2.090063149e-06 0)
(0.0002314194405 1.779542834e-06 0)
(0.0002319342142 1.464667384e-06 0)
(0.0002324515884 1.146993242e-06 0)
(0.0002329739693 8.27941603e-07 0)
(0.0002335036187 5.088503959e-07 0)
(0.0002340426381 1.910145034e-07 0)
(0.0002345929427 -1.242657506e-07 0)
(0.0002351562341 -4.356510019e-07 0)
(0.0002357340074 -7.417443843e-07 0)
(0.0002363275508 -1.041063984e-06 0)
(0.0002369379171 -1.332022281e-06 0)
(0.0002375659215 -1.612958357e-06 0)
(0.0002382121157 -1.882140487e-06 0)
(0.0002388767867 -2.137755916e-06 0)
(0.0002395599586 -2.377930174e-06 0)
(0.0002402613787 -2.600752332e-06 0)
(0.0002409805065 -2.804299076e-06 0)
(0.0002417165128 -2.986667512e-06 0)
(0.0002424682849 -3.146007888e-06 0)
(0.0002432344344 -3.280564553e-06 0)
(0.000244013304 -3.388713523e-06 0)
(0.0002448029841 -3.468997938e-06 0)
(0.0002456013418 -3.520166586e-06 0)
(0.0002464060513 -3.541207765e-06 0)
(0.0002472146276 -3.531378068e-06 0)
(0.0002480244674 -3.490226497e-06 0)
(0.0002185891239 2.605739625e-07 0)
(0.0002186991371 7.795572665e-07 0)
(0.0002189341053 1.283897712e-06 0)
(0.0002192146762 1.759272522e-06 0)
(0.0002195474553 2.194022682e-06 0)
(0.0002199482741 2.579907315e-06 0)
(0.0002204107316 2.911387789e-06 0)
(0.0002209182548 3.185047573e-06 0)
(0.0002214573398 3.39937717e-06 0)
(0.0002220189539 3.554631795e-06 0)
(0.0002225956169 3.652569988e-06 0)
(0.0002231802353 3.696093158e-06 0)
(0.0002237666102 3.688887717e-06 0)
(0.0002243499337 3.635129549e-06 0)
(0.0002249267708 3.539247841e-06 0)
(0.0002254948387 3.405728483e-06 0)
(0.0002260528359 3.238952666e-06 0)
(0.0002266003257 3.043076504e-06 0)
(0.0002271376164 2.821953149e-06 0)
(0.0002276656273 2.579091417e-06 0)
(0.0002281857566 2.31764349e-06 0)
(0.0002286997643 2.040413655e-06 0)
(0.0002292096715 1.749884462e-06 0)
(0.0002297176723 1.448255681e-06 0)
(0.0002302260605 1.137488667e-06 0)
(0.0002307371691 8.193534066e-07 0)
(0.0002312533204 4.954829751e-07 0)
(0.000231776786 1.674108976e-07 0)
(0.0002323097406 -1.633740175e-07 0)
(0.0002328542328 -4.953823669e-07 0)
(0.0002334121771 -8.270956059e-07 0)
(0.0002339853266 -1.156934042e-06 0)
(0.0002345752464 -1.483233218e-06 0)
(0.0002351832948 -1.804240243e-06 0)
(0.000235810601 -2.118094262e-06 0)
(0.0002364580512 -2.422831211e-06 0)
(0.0002371262703 -2.71638421e-06 0)
(0.0002378156016 -2.99658925e-06 0)
(0.0002385260918 -3.261207403e-06 0)
(0.0002392574757 -3.507952368e-06 0)
(0.0002400091631 -3.734519589e-06 0)
(0.0002407802316 -3.938621531e-06 0)
(0.0002415694256 -4.118028234e-06 0)
(0.0002423751604 -4.27061351e-06 0)
(0.0002431955321 -4.394401972e-06 0)
(0.0002440283362 -4.487613477e-06 0)
(0.0002448710958 -4.54870893e-06 0)
(0.0002457210968 -4.576433911e-06 0)
(0.0002465754299 -4.569856167e-06 0)
(0.0002474310408 -4.528395962e-06 0)
(0.0002185873561 2.076725908e-07 0)
(0.0002186834439 6.226019572e-07 0)
(0.000218889397 1.027678831e-06 0)
(0.0002191265249 1.411737097e-06 0)
(0.0002194046264 1.765357228e-06 0)
(0.0002197427569 2.081455468e-06 0)
(0.0002201371394 2.354856537e-06 0)
(0.0002205734744 2.581989054e-06 0)
(0.0002210403627 2.760793832e-06 0)
(0.0002215306574 2.890632003e-06 0)
(0.0002220384321 2.972096005e-06 0)
(0.0002225577689 3.006757545e-06 0)
(0.000223083293 2.996913912e-06 0)
(0.0002236107248 2.945365871e-06 0)
(0.00022413691 2.855229955e-06 0)
(0.0002246596403 2.729778052e-06 0)
(0.0002251775225 2.572302759e-06 0)
(0.000225689907 2.386012158e-06 0)
(0.0002261968086 2.173956287e-06 0)
(0.0002266988094 1.938982111e-06 0)
(0.0002271969543 1.683714084e-06 0)
(0.000227692657 1.410550887e-06 0)
(0.000228187619 1.121681514e-06 0)
(0.0002286837545 8.190967806e-07 0)
(0.0002291831199 5.046402197e-07 0)
(0.0002296878657 1.800295981e-07 0)
(0.0002302001771 -1.531029477e-07 0)
(0.0002307222243 -4.931639609e-07 0)
(0.0002312561491 -8.385613521e-07 0)
(0.0002318040195 -1.187664057e-06 0)
(0.000232367788 -1.538779139e-06 0)
(0.0002329492704 -1.890127452e-06 0)
(0.0002335501187 -2.239818054e-06 0)
(0.0002341717923 -2.585834529e-06 0)
(0.0002348155299 -2.92602427e-06 0)
(0.0002354823236 -3.258096212e-06 0)
(0.0002361728911 -3.579627788e-06 0)
(0.0002368876467 -3.888077782e-06 0)
(0.0002376266765 -4.180806731e-06 0)
(0.0002383897163 -4.455105635e-06 0)
(0.0002391761326 -4.708231216e-06 0)
(0.000239984908 -4.93744817e-06 0)
(0.0002408146341 -5.14007823e-06 0)
(0.0002416635117 -5.313554424e-06 0)
(0.0002425293598 -5.455478096e-06 0)
(0.0002434096347 -5.563676585e-06 0)
(0.0002443014596 -5.636260625e-06 0)
(0.0002452016662 -5.671678659e-06 0)
(0.0002461068451 -5.668764928e-06 0)
(0.0002470134069 -5.626779304e-06 0)
(0.0002185859715 1.632740041e-07 0)
(0.0002186711605 4.907952063e-07 0)
(0.0002188543639 8.120455458e-07 0)
(0.0002190572455 1.118147951e-06 0)
(0.0002192918535 1.401396604e-06 0)
(0.0002195795385 1.655723915e-06 0)
(0.0002199184448 1.876415869e-06 0)
(0.0002202960134 2.059944205e-06 0)
(0.0002207025065 2.203948292e-06 0)
(0.0002211322971 2.307193357e-06 0)
(0.0002215807501 2.369445644e-06 0)
(0.0002220429745 2.391298632e-06 0)
(0.0002225143694 2.373994122e-06 0)
(0.0002229912024 2.319258255e-06 0)
(0.0002234706689 2.229155876e-06 0)
(0.00022395074 2.105961975e-06 0)
(0.0002244300626 1.9520513e-06 0)
(0.0002249079188 1.769809096e-06 0)
(0.0002253841789 1.561566177e-06 0)
(0.000225859233 1.329554839e-06 0)
(0.0002263339102 1.07589194e-06 0)
(0.0002268094078 8.02546627e-07 0)
(0.0002272872109 5.114015392e-07 0)
(0.0002277690488 2.042152614e-07 0)
(0.0002282568396 -1.173702069e-07 0)
(0.0002287526068 -4.517471227e-07 0)
(0.0002292584617 -7.973232112e-07 0)
(0.0002297765628 -1.152492286e-06 0)
(0.0002303090625 -1.51560922e-06 0)
(0.0002308580709 -1.884959828e-06 0)
(0.0002314256215 -2.258724327e-06 0)
(0.0002320136398 -2.634951099e-06 0)
(0.0002326239077 -3.011536273e-06 0)
(0.0002332580278 -3.386209017e-06 0)
(0.0002339173872 -3.756522561e-06 0)
(0.0002346031208 -4.119852668e-06 0)
(0.0002353160741 -4.473404703e-06 0)
(0.0002360567661 -4.814227435e-06 0)
(0.0002368253545 -5.139235197e-06 0)
(0.0002376216035 -5.44524021e-06 0)
(0.0002384448549 -5.728994349e-06 0)
(0.0002392940046 -5.987239765e-06 0)
(0.0002401674881 -6.216767824e-06 0)
(0.0002410632753 -6.414484902e-06 0)
(0.0002419788758 -6.577482949e-06 0)
(0.0002429113583 -6.703112241e-06 0)
(0.0002438573826 -6.789053834e-06 0)
(0.0002448132472 -6.833388775e-06 0)
(0.0002457749499 -6.834660625e-06 0)
(0.0002467382618 -6.791928091e-06 0)
(0.0002185848637 1.255845242e-07 0)
(0.0002186613414 3.788737878e-07 0)
(0.0002188263397 6.286614891e-07 0)
(0.0002190017034 8.677609647e-07 0)
(0.0002192011122 1.089772741e-06 0)
(0.000219447579 1.289465189e-06 0)
(0.0002197406565 1.462570083e-06 0)
(0.0002200691061 1.605687486e-06 0)
(0.0002204244945 1.716309403e-06 0)
(0.0002208024195 1.792815345e-06 0)
(0.0002211993157 1.834394754e-06 0)
(0.0002216111757 1.840927065e-06 0)
(0.0002220340971 1.812854551e-06 0)
(0.0002224648751 1.75106273e-06 0)
(0.0002229010777 1.656770473e-06 0)
(0.000223340912 1.531429687e-06 0)
(0.0002237831459 1.376637117e-06 0)
(0.0002242270909 1.194060758e-06 0)
(0.0002246725785 9.853867215e-07 0)
(0.000225119919 7.522677067e-07 0)
(0.0002255698131 4.963554144e-07 0)
(0.0002260233552 2.19217743e-07 0)
(0.0002264819534 -7.767189342e-08 0)
(0.0002269471806 -3.928320079e-07 0)
(0.0002274208537 -7.247909406e-07 0)
(0.0002279050027 -1.072081445e-06 0)
(0.0002284017455 -1.433210955e-06 0)
(0.0002289132556 -1.806630045e-06 0)
(0.0002294417436 -2.190697912e-06 0)
(0.0002299894204 -2.583651056e-06 0)
(0.0002305584546 -2.983572076e-06 0)
(0.0002311509319 -3.38836426e-06 0)
(0.0002317688154 -3.795730851e-06 0)
(0.0002324139021 -4.203158816e-06 0)
(0.0002330877789 -4.607908879e-06 0)
(0.0002337917761 -5.007012799e-06 0)
(0.0002345269201 -5.397278758e-06 0)
(0.0002352938861 -5.775305788e-06 0)
(0.0002360929504 -6.137508846e-06 0)
(0.0002369239451 -6.480155556e-06 0)
(0.0002377862174 -6.799414655e-06 0)
(0.0002386785956 -7.091415883e-06 0)
(0.0002395993634 -7.352320824e-06 0)
(0.0002405462467 -7.578403276e-06 0)
(0.0002415164142 -7.766136788e-06 0)
(0.0002425064939 -7.912286354e-06 0)
(0.0002435126085 -8.014000881e-06 0)
(0.0002445304287 -8.068902597e-06 0)
(0.000245555246 -8.075168869e-06 0)
(0.0002465820624 -8.031601953e-06 0)
(0.0002185839597 9.329965486e-08 0)
(0.0002186533354 2.829985505e-07 0)
(0.000218803479 4.713985851e-07 0)
(0.000218956313 6.525763757e-07 0)
(0.0002191267298 8.211289322e-07 0)
(0.0002193389708 9.724956098e-07 0)
(0.00021959363 1.102804052e-06 0)
(0.0002198804721 1.208814436e-06 0)
(0.0002201920852 1.287963034e-06 0)
(0.0002205250493 1.338380602e-06 0)
(0.0002208766776 1.358847311e-06 0)
(0.0002212437094 1.348711101e-06 0)
(0.000221622856 1.30779803e-06 0)
(0.0002220113994 1.236326744e-06 0)
(0.0002224072759 1.134828036e-06 0)
(0.0002228089544 1.004068526e-06 0)
(0.000223215371 8.449824603e-07 0)
(0.000223625932 6.586087333e-07 0)
(0.000224040492 4.460648335e-07 0)
(0.0002244593884 2.08497022e-07 0)
(0.0002248833256 -5.298834054e-08 0)
(0.0002253132461 -3.372092987e-07 0)
(0.0002257504831 -6.430085826e-07 0)
(0.0002261967128 -9.69208288e-07 0)
(0.0002266537746 -1.3145671e-06 0)
(0.000227123657 -1.677813652e-06 0)
(0.0002276085097 -2.057607402e-06 0)
(0.0002281106026 -2.452491982e-06 0)
(0.000228632275 -2.860865453e-06 0)
(0.0002291758966 -3.280952768e-06 0)
(0.0002297438268 -3.710775586e-06 0)
(0.0002303383706 -4.148123935e-06 0)
(0.0002309617327 -4.590531912e-06 0)
(0.0002316159686 -5.035258249e-06 0)
(0.0002323029318 -5.479272991e-06 0)
(0.0002330242175 -5.919251669e-06 0)
(0.0002337811036 -6.351578736e-06 0)
(0.0002345744894 -6.77236189e-06 0)
(0.0002354048335 -7.177458719e-06 0)
(0.0002362720938 -7.562517132e-06 0)
(0.0002371756711 -7.923030604e-06 0)
(0.0002381143594 -8.254408551e-06 0)
(0.0002390863068 -8.552061351e-06 0)
(0.0002400889899 -8.811498596e-06 0)
(0.0002411192061 -9.028438011e-06 0)
(0.0002421730858 -9.198921484e-06 0)
(0.0002432461292 -9.319433768e-06 0)
(0.0002443332662 -9.387018733e-06 0)
(0.0002454289433 -9.399387227e-06 0)
(0.0002465272334 -9.355010214e-06 0)
(0.0002185832074 6.545427185e-08 0)
(0.0002186466797 2.003223586e-07 0)
(0.0002187844692 3.356912934e-07 0)
(0.0002189185132 4.665907915e-07 0)
(0.0002190646273 5.883782837e-07 0)
(0.0002192479765 6.97024637e-07 0)
(0.000219469932 7.889939616e-07 0)
(0.0002197210217 8.61206106e-07 0)
(0.0002199946315 9.110874616e-07 0)
(0.0002202881263 9.366033057e-07 0)
(0.0002205995365 9.362355023e-07 0)
(0.0002209262268 9.089280153e-07 0)
(0.0002212654381 8.540247053e-07 0)
(0.0002216148899 7.712092805e-07 0)
(0.0002219728673 6.604477365e-07 0)
(0.0002223381053 5.21930162e-07 0)
(0.0002227097294 3.560235307e-07 0)
(0.0002230872898 1.632239325e-07 0)
(0.0002234707534 -5.590314847e-08 0)
(0.0002238604037 -3.006954095e-07 0)
(0.0002242569578 -5.704786407e-07 0)
(0.0002246615336 -8.644943802e-07 0)
(0.0002250754804 -1.181894553e-06 0)
(0.0002255004204 -1.521813364e-06 0)
(0.0002259382274 -1.883325082e-06 0)
(0.0002263909861 -2.265392051e-06 0)
(0.0002268609677 -2.666842149e-06 0)
(0.0002273505879 -3.086347025e-06 0)
(0.0002278623648 -3.522389413e-06 0)
(0.0002283988835 -3.973228661e-06 0)
(0.0002289627553 -4.436867014e-06 0)
(0.0002295565711 -4.911016774e-06 0)
(0.0002301828502 -5.393070534e-06 0)
(0.0002308439853 -5.880076226e-06 0)
(0.0002315421796 -6.368718374e-06 0)
(0.0002322793807 -6.855307348e-06 0)
(0.000233057207 -7.335778684e-06 0)
(0.0002338768717 -7.805704651e-06 0)
(0.0002347391036 -8.260320434e-06 0)
(0.0002356440677 -8.694567315e-06 0)
(0.0002365912883 -9.103154672e-06 0)
(0.0002375795799 -9.480641701e-06 0)
(0.0002386069877 -9.821538747e-06 0)
(0.0002396707458 -1.012042708e-05 0)
(0.0002407672553 -1.037209449e-05 0)
(0.0002418920895 -1.057168256e-05 0)
(0.0002430400286 -1.071483982e-05 0)
(0.0002442051278 -1.079787389e-05 0)
(0.0002453808192 -1.081789461e-05 0)
(0.0002465600466 -1.077293925e-05 0)
(0.0002185825684 4.132577561e-08 0)
(0.0002186410397 1.287058068e-07 0)
(0.0002187683628 2.180890231e-07 0)
(0.0002188864452 3.052413526e-07 0)
(0.0002190118191 3.861046713e-07 0)
(0.0002191703614 4.570572331e-07 0)