/*--------------------------------*- C++ -*----------------------------------*\
| =========                 |                                                 |
| \\      /  F ield         | foam-extend: Open Source CFD                    |
|  \\    /   O peration     | Version:     4.1                                |
|   \\  /    A nd           | Web:         http://www.foam-extend.org         |
|    \\/     M anipulation  |                                                 |
\*---------------------------------------------------------------------------*/
FoamFile
{
    version     2.0;
    format      ascii;
    class       volVectorField;
    location    "500000";
    object      vorticity;
}
// * * * * * * * * * * * * * * * * * * * * * * * * * * * * * * * * * * * * * //

dimensions      [0 0 -1 0 0 0 0];

internalField   nonuniform List<vector> 
15920
(
(0 -0 -0.008246877761)
(0 -0 -0.008403640576)
(0 -0 -0.008452058876)
(0 -0 -0.008328346143)
(0 -0 -0.00811892156)
(0 -0 -0.007882614791)
(0 -0 -0.007630045665)
(0 -0 -0.007362287685)
(0 -0 -0.007087936289)
(0 -0 -0.006817964576)
(0 -0 -0.006559930914)
(0 -0 -0.006317893108)
(0 -0 -0.006094087156)
(0 -0 -0.005889678757)
(0 -0 -0.005704856904)
(0 -0 -0.005538993009)
(0 -0 -0.005390932573)
(0 -0 -0.005259250467)
(0 -0 -0.00514241385)
(0 -0 -0.00503888347)
(0 -0 -0.00494718148)
(0 -0 -0.004865934767)
(0 -0 -0.004793897655)
(0 -0 -0.004729959885)
(0 -0 -0.004673143078)
(0 -0 -0.004622593199)
(0 -0 -0.00457757001)
(0 -0 -0.004537434482)
(0 -0 -0.004501635603)
(0 -0 -0.004469697263)
(0 -0 -0.004441205355)
(0 -0 -0.0044157896)
(0 -0 -0.004393130096)
(0 -0 -0.004372951693)
(0 -0 -0.004355004552)
(0 -0 -0.004339052418)
(0 -0 -0.004324871606)
(0 -0 -0.004312250134)
(0 -0 -0.004300984897)
(0 -0 -0.004290878943)
(0 -0 -0.004281739698)
(0 -0 -0.004273378083)
(0 -0 -0.004265608691)
(0 -0 -0.004258251396)
(0 -0 -0.004251141277)
(0 -0 -0.004244107138)
(0 -0 -0.004236973017)
(0 -0 -0.004229568167)
(0 -0 -0.004221730311)
(0 -0 -0.004213304605)
(0 -0 0.0003543136477)
(0 -0 -7.197801131e-06)
(0 -0 -0.0003935105934)
(0 -0 -0.0007928571961)
(0 -0 -0.001187909256)
(0 -0 -0.001562324434)
(0 -0 -0.00190717891)
(0 -0 -0.00221760249)
(0 -0 -0.002489787889)
(0 -0 -0.00272168952)
(0 -0 -0.002913876275)
(0 -0 -0.003068998381)
(0 -0 -0.00319077206)
(0 -0 -0.003283318444)
(0 -0 -0.003350849244)
(0 -0 -0.003397453144)
(0 -0 -0.003426918623)
(0 -0 -0.003442624065)
(0 -0 -0.00344749831)
(0 -0 -0.003444025981)
(0 -0 -0.00343427575)
(0 -0 -0.00341994091)
(0 -0 -0.003402385954)
(0 -0 -0.003382694672)
(0 -0 -0.00336171584)
(0 -0 -0.003340103867)
(0 -0 -0.003318354442)
(0 -0 -0.00329683566)
(0 -0 -0.003275814767)
(0 -0 -0.003255480679)
(0 -0 -0.003235963106)
(0 -0 -0.003217349807)
(0 -0 -0.003199690774)
(0 -0 -0.003183010941)
(0 -0 -0.00316731964)
(0 -0 -0.003152615119)
(0 -0 -0.003138887279)
(0 -0 -0.003126119758)
(0 -0 -0.003114291515)
(0 -0 -0.003103377933)
(0 -0 -0.003093351581)
(0 -0 -0.003084182667)
(0 -0 -0.003075839281)
(0 -0 -0.003068287045)
(0 -0 -0.003061485823)
(0 -0 -0.003055399068)
(0 -0 -0.003049987087)
(0 -0 -0.003045206023)
(0 -0 -0.003041008705)
(0 -0 -0.003037345326)
(0 -0 0.0001674088922)
(0 -0 0.0002457649958)
(0 -0 0.0003099069439)
(0 -0 0.0003382787053)
(0 -0 0.0003250352369)
(0 -0 0.0002724597925)
(0 -0 0.0001871758557)
(0 -0 7.715489803e-05)
(0 -0 -4.971599856e-05)
(0 -0 -0.0001862366264)
(0 -0 -0.0003262874065)
(0 -0 -0.0004650436727)
(0 -0 -0.0005989669252)
(0 -0 -0.0007256445229)
(0 -0 -0.0008435929006)
(0 -0 -0.0009520633941)
(0 -0 -0.001050858341)
(0 -0 -0.001140166723)
(0 -0 -0.001220428826)
(0 -0 -0.001292232887)
(0 -0 -0.001356240828)
(0 -0 -0.001413137688)
(0 -0 -0.001463599145)
(0 -0 -0.001508270448)
(0 -0 -0.001547755486)
(0 -0 -0.001582611533)
(0 -0 -0.001613347305)
(0 -0 -0.001640423461)
(0 -0 -0.001664254834)
(0 -0 -0.00168521374)
(0 -0 -0.001703633832)
(0 -0 -0.001719814853)
(0 -0 -0.001734024473)
(0 -0 -0.001746504696)
(0 -0 -0.001757475648)
(0 -0 -0.001767137529)
(0 -0 -0.001775673162)
(0 -0 -0.001783250219)
(0 -0 -0.001790022784)
(0 -0 -0.001796132563)
(0 -0 -0.001801709945)
(0 -0 -0.001806874958)
(0 -0 -0.001811738127)
(0 -0 -0.001816401362)
(0 -0 -0.00182095772)
(0 -0 -0.00182549465)
(0 -0 -0.001830091167)
(0 -0 -0.001834819099)
(0 -0 -0.00183974394)
(0 -0 -0.001844924861)
(0 -0 0.0001498182573)
(0 -0 0.0001519393133)
(0 -0 0.0001617136491)
(0 -0 0.000179641485)
(0 -0 0.0002032903852)
(0 -0 0.0002285177796)
(0 -0 0.0002508962612)
(0 -0 0.0002669133001)
(0 -0 0.0002743613744)
(0 -0 0.0002722642072)
(0 -0 0.0002606598254)
(0 -0 0.0002403238669)
(0 -0 0.0002124758047)
(0 -0 0.000178528318)
(0 -0 0.0001399094889)
(0 -0 9.794957163e-05)
(0 -0 5.38186052e-05)
(0 -0 8.501857229e-06)
(0 -0 -3.719913896e-05)
(0 -0 -8.265087346e-05)
(0 -0 -0.0001273657121)
(0 -0 -0.0001709784599)
(0 -0 -0.0002132243771)
(0 -0 -0.0002539194193)
(0 -0 -0.0002929437596)
(0 -0 -0.0003302278975)
(0 -0 -0.0003657411703)
(0 -0 -0.0003994825898)
(0 -0 -0.0004314736736)
(0 -0 -0.0004617529065)
(0 -0 -0.0004903715083)
(0 -0 -0.0005173902979)
(0 -0 -0.0005428772595)
(0 -0 -0.0005669060335)
(0 -0 -0.0005895548482)
(0 -0 -0.0006109056292)
(0 -0 -0.0006310433006)
(0 -0 -0.0006500551432)
(0 -0 -0.0006680301112)
(0 -0 -0.0006850581297)
(0 -0 -0.0007012294596)
(0 -0 -0.0007166340976)
(0 -0 -0.0007313612436)
(0 -0 -0.0007454989171)
(0 -0 -0.0007591335791)
(0 -0 -0.0007723500714)
(0 -0 -0.0007852311524)
(0 -0 -0.0007978572233)
(0 -0 -0.0008103061967)
(0 -0 -0.0008226533058)
(0 -0 0.0001015230803)
(0 -0 0.0001026882195)
(0 -0 0.0001041569566)
(0 -0 0.0001063590194)
(0 -0 0.0001100071811)
(0 -0 0.0001157139118)
(0 -0 0.0001237003236)
(0 -0 0.0001337203163)
(0 -0 0.0001451530472)
(0 -0 0.0001571593264)
(0 -0 0.0001688459228)
(0 -0 0.0001794028004)
(0 -0 0.000188188154)
(0 -0 0.0001947597859)
(0 -0 0.0001988691463)
(0 -0 0.0002004342594)
(0 -0 0.0001995031471)
(0 -0 0.0001962162534)
(0 -0 0.0001907731455)
(0 -0 0.0001834058715)
(0 -0 0.0001743591739)
(0 -0 0.0001638766492)
(0 -0 0.0001521916306)
(0 -0 0.0001395216445)
(0 -0 0.000126065466)
(0 -0 0.000112001958)
(0 -0 9.749009847e-05)
(0 -0 8.266974222e-05)
(0 -0 6.766278995e-05)
(0 -0 5.257454304e-05)
(0 -0 3.7495106e-05)
(0 -0 2.250074254e-05)
(0 -0 7.655122673e-06)
(0 -0 -6.989576528e-06)
(0 -0 -2.139173517e-05)
(0 -0 -3.551948069e-05)
(0 -0 -4.934993993e-05)
(0 -0 -6.286857428e-05)
(0 -0 -7.606847177e-05)
(0 -0 -8.894956793e-05)
(0 -0 -0.0001015183742)
(0 -0 -0.0001137864527)
(0 -0 -0.0001257671519)
(0 -0 -0.0001374809155)
(0 -0 -0.0001489533109)
(0 -0 -0.0001602135411)
(0 -0 -0.0001712937359)
(0 -0 -0.0001822284329)
(0 -0 -0.0001930541777)
(0 -0 -0.0002038091742)
(0 -0 7.9462197e-05)
(0 -0 7.96964083e-05)
(0 -0 8.000646997e-05)
(0 -0 8.036435752e-05)
(0 -0 8.077928082e-05)
(0 -0 8.132845882e-05)
(0 -0 8.215592304e-05)
(0 -0 8.343604406e-05)
(0 -0 8.532274371e-05)
(0 -0 8.790818748e-05)
(0 -0 9.120274393e-05)
(0 -0 9.513636974e-05)
(0 -0 9.957493516e-05)
(0 -0 0.0001043434629)
(0 -0 0.0001092498723)
(0 -0 0.000114105245)
(0 -0 0.0001187385179)
(0 -0 0.0001230052257)
(0 -0 0.0001267911641)
(0 -0 0.0001300123825)
(0 -0 0.0001326128746)
(0 -0 0.0001345610462)
(0 -0 0.000135845723)
(0 -0 0.0001364721894)
(0 -0 0.000136458548)
(0 -0 0.0001358325316)
(0 -0 0.0001346288014)
(0 -0 0.0001328867159)
(0 -0 0.0001306485287)
(0 -0 0.0001279579596)
(0 -0 0.0001248590779)
(0 -0 0.0001213954367)
(0 -0 0.0001176093973)
(0 -0 0.0001135416112)
(0 -0 0.000109230559)
(0 -0 0.0001047122092)
(0 -0 0.0001000199067)
(0 -0 9.518319517e-05)
(0 -0 9.022893018e-05)
(0 -0 8.518118991e-05)
(0 -0 8.006127077e-05)
(0 -0 7.488638514e-05)
(0 -0 6.966717703e-05)
(0 -0 6.441422949e-05)
(0 -0 5.913618206e-05)
(0 -0 5.383893034e-05)
(0 -0 4.852558246e-05)
(0 -0 4.319654681e-05)
(0 -0 3.784967308e-05)
(0 -0 3.248038903e-05)
(0 -0 6.277668017e-05)
(0 -0 6.301551784e-05)
(0 -0 6.331453226e-05)
(0 -0 6.36588174e-05)
(0 -0 6.403154937e-05)
(0 -0 6.441124211e-05)
(0 -0 6.478123973e-05)
(0 -0 6.513917439e-05)
(0 -0 6.550066037e-05)
(0 -0 6.589679029e-05)
(0 -0 6.636755163e-05)
(0 -0 6.695377592e-05)
(0 -0 6.768970086e-05)
(0 -0 6.85975888e-05)
(0 -0 6.968511614e-05)
(0 -0 7.094542936e-05)
(0 -0 7.23591522e-05)
(0 -0 7.389744454e-05)
(0 -0 7.552534229e-05)
(0 -0 7.72048582e-05)
(0 -0 7.889755723e-05)
(0 -0 8.056651519e-05)
(0 -0 8.217769004e-05)
(0 -0 8.370079805e-05)
(0 -0 8.510979663e-05)
(0 -0 8.638306546e-05)
(0 -0 8.750336522e-05)
(0 -0 8.845764173e-05)
(0 -0 8.923673427e-05)
(0 -0 8.983503245e-05)
(0 -0 9.025011468e-05)
(0 -0 9.048237693e-05)
(0 -0 9.053464271e-05)
(0 -0 9.041200916e-05)
(0 -0 9.012036925e-05)
(0 -0 8.966753296e-05)
(0 -0 8.906265159e-05)
(0 -0 8.831662362e-05)
(0 -0 8.744052642e-05)
(0 -0 8.644511398e-05)
(0 -0 8.534148941e-05)
(0 -0 8.414026701e-05)
(0 -0 8.284822555e-05)
(0 -0 8.147406689e-05)
(0 -0 8.002731288e-05)
(0 -0 7.851716339e-05)
(0 -0 7.695210133e-05)
(0 -0 7.53397117e-05)
(0 -0 7.36865908e-05)
(0 -0 7.199828863e-05)
(0 -0 5.006467321e-05)
(0 -0 5.028118194e-05)
(0 -0 5.054282072e-05)
(0 -0 5.083784832e-05)
(0 -0 5.115955519e-05)
(0 -0 5.149978112e-05)
(0 -0 5.184960105e-05)
(0 -0 5.21999702e-05)
(0 -0 5.254216182e-05)
(0 -0 5.286893285e-05)
(0 -0 5.317597181e-05)
(0 -0 5.346280415e-05)
(0 -0 5.373281365e-05)
(0 -0 5.399246621e-05)
(0 -0 5.42500309e-05)
(0 -0 5.451416744e-05)
(0 -0 5.479269287e-05)
(0 -0 5.509170876e-05)
(0 -0 5.541512422e-05)
(0 -0 5.576451309e-05)
(0 -0 5.613920648e-05)
(0 -0 5.653653427e-05)
(0 -0 5.695215633e-05)
(0 -0 5.738044214e-05)
(0 -0 5.781486373e-05)
(0 -0 5.824837027e-05)
(0 -0 5.867372231e-05)
(0 -0 5.908377469e-05)
(0 -0 5.94717122e-05)
(0 -0 5.983122694e-05)
(0 -0 6.0156691e-05)
(0 -0 6.044314988e-05)
(0 -0 6.068628877e-05)
(0 -0 6.088277933e-05)
(0 -0 6.103122204e-05)
(0 -0 6.113065378e-05)
(0 -0 6.118047011e-05)
(0 -0 6.11816882e-05)
(0 -0 6.11356387e-05)
(0 -0 6.104386526e-05)
(0 -0 6.090804711e-05)
(0 -0 6.073105688e-05)
(0 -0 6.051947557e-05)
(0 -0 6.027728797e-05)
(0 -0 6.000753691e-05)
(0 -0 5.971312972e-05)
(0 -0 5.939701595e-05)
(0 -0 5.906218584e-05)
(0 -0 5.871160597e-05)
(0 -0 5.834814693e-05)
(0 -0 4.025952389e-05)
(0 -0 4.046461226e-05)
(0 -0 4.070334475e-05)
(0 -0 4.096255209e-05)
(0 -0 4.123658688e-05)
(0 -0 4.1520393e-05)
(0 -0 4.180968838e-05)
(0 -0 4.210080897e-05)
(0 -0 4.238995914e-05)
(0 -0 4.267297287e-05)
(0 -0 4.294558589e-05)
(0 -0 4.320379124e-05)
(0 -0 4.344414092e-05)
(0 -0 4.366400067e-05)
(0 -0 4.386170255e-05)
(0 -0 4.403654911e-05)
(0 -0 4.41887034e-05)
(0 -0 4.431902973e-05)
(0 -0 4.44289235e-05)
(0 -0 4.452013202e-05)
(0 -0 4.459456693e-05)
(0 -0 4.465412143e-05)
(0 -0 4.470051826e-05)
(0 -0 4.473520539e-05)
(0 -0 4.475930272e-05)
(0 -0 4.477358943e-05)
(0 -0 4.477852029e-05)
(0 -0 4.477425151e-05)
(0 -0 4.476070823e-05)
(0 -0 4.47375201e-05)
(0 -0 4.470411432e-05)
(0 -0 4.46600763e-05)
(0 -0 4.46052204e-05)
(0 -0 4.453895563e-05)
(0 -0 4.446175331e-05)
(0 -0 4.437380707e-05)
(0 -0 4.427524524e-05)
(0 -0 4.416548567e-05)
(0 -0 4.404460742e-05)
(0 -0 4.391348593e-05)
(0 -0 4.377328897e-05)
(0 -0 4.362538074e-05)
(0 -0 4.347139094e-05)
(0 -0 4.331311302e-05)
(0 -0 4.315243727e-05)
(0 -0 4.29912964e-05)
(0 -0 4.283164877e-05)
(0 -0 4.267546732e-05)
(0 -0 4.252472013e-05)
(0 -0 4.238134699e-05)
(0 -0 3.244619042e-05)
(0 -0 3.265630595e-05)
(0 -0 3.289406151e-05)
(0 -0 3.314413648e-05)
(0 -0 3.34006419e-05)
(0 -0 3.365903321e-05)
(0 -0 3.391575317e-05)
(0 -0 3.416804514e-05)
(0 -0 3.441340741e-05)
(0 -0 3.464938206e-05)
(0 -0 3.487363067e-05)
(0 -0 3.508398888e-05)
(0 -0 3.527845938e-05)
(0 -0 3.545522186e-05)
(0 -0 3.561265997e-05)
(0 -0 3.574937186e-05)
(0 -0 3.586417946e-05)
(0 -0 3.595616496e-05)
(0 -0 3.602472761e-05)
(0 -0 3.606962386e-05)
(0 -0 3.609096317e-05)
(0 -0 3.608916245e-05)
(0 -0 3.60648828e-05)
(0 -0 3.60189692e-05)
(0 -0 3.595240474e-05)
(0 -0 3.586627119e-05)
(0 -0 3.576173311e-05)
(0 -0 3.563992806e-05)
(0 -0 3.550193928e-05)
(0 -0 3.534905291e-05)
(0 -0 3.518263162e-05)
(0 -0 3.500400703e-05)
(0 -0 3.481468142e-05)
(0 -0 3.461610128e-05)
(0 -0 3.4408689e-05)
(0 -0 3.419329739e-05)
(0 -0 3.397123612e-05)
(0 -0 3.374394461e-05)
(0 -0 3.351290875e-05)
(0 -0 3.327967497e-05)
(0 -0 3.304585468e-05)
(0 -0 3.281311265e-05)
(0 -0 3.258315261e-05)
(0 -0 3.235769637e-05)
(0 -0 3.213847189e-05)
(0 -0 3.192720863e-05)
(0 -0 3.17256338e-05)
(0 -0 3.153546324e-05)
(0 -0 3.13583831e-05)
(0 -0 3.119602903e-05)
(0 -0 2.608485455e-05)
(0 -0 2.63075832e-05)
(0 -0 2.655508763e-05)
(0 -0 2.68097839e-05)
(0 -0 2.706538256e-05)
(0 -0 2.731756864e-05)
(0 -0 2.756310365e-05)
(0 -0 2.779951083e-05)
(0 -0 2.802462204e-05)
(0 -0 2.823640205e-05)
(0 -0 2.843299221e-05)
(0 -0 2.861274848e-05)
(0 -0 2.877423686e-05)
(0 -0 2.891622822e-05)
(0 -0 2.903768337e-05)
(0 -0 2.913771396e-05)
(0 -0 2.921554812e-05)
(0 -0 2.927054015e-05)
(0 -0 2.930221848e-05)
(0 -0 2.931033302e-05)
(0 -0 2.929486893e-05)
(0 -0 2.925602741e-05)
(0 -0 2.919419305e-05)
(0 -0 2.910990673e-05)
(0 -0 2.900385622e-05)
(0 -0 2.887682804e-05)
(0 -0 2.872966219e-05)
(0 -0 2.856347515e-05)
(0 -0 2.837956003e-05)
(0 -0 2.817933203e-05)
(0 -0 2.796430211e-05)
(0 -0 2.773583199e-05)
(0 -0 2.749511873e-05)
(0 -0 2.724364284e-05)
(0 -0 2.698296859e-05)
(0 -0 2.671470802e-05)
(0 -0 2.644054023e-05)
(0 -0 2.6162219e-05)
(0 -0 2.588156406e-05)
(0 -0 2.560044338e-05)
(0 -0 2.532075028e-05)
(0 -0 2.504438071e-05)
(0 -0 2.477321618e-05)
(0 -0 2.450911116e-05)
(0 -0 2.42538846e-05)
(0 -0 2.400931433e-05)
(0 -0 2.377713272e-05)
(0 -0 2.355902131e-05)
(0 -0 2.335659855e-05)
(0 -0 2.317140033e-05)
(0 -0 2.081991328e-05)
(0 -0 2.105968729e-05)
(0 -0 2.132320672e-05)
(0 -0 2.159057541e-05)
(0 -0 2.185499438e-05)
(0 -0 2.211219581e-05)
(0 -0 2.235907476e-05)
(0 -0 2.259326188e-05)
(0 -0 2.281274058e-05)
(0 -0 2.301568871e-05)
(0 -0 2.320047446e-05)
(0 -0 2.336566437e-05)
(0 -0 2.351002416e-05)
(0 -0 2.363252728e-05)
(0 -0 2.373234314e-05)
(0 -0 2.380879416e-05)
(0 -0 2.386131803e-05)
(0 -0 2.388947553e-05)
(0 -0 2.389299815e-05)
(0 -0 2.387183239e-05)
(0 -0 2.382614815e-05)
(0 -0 2.375631458e-05)
(0 -0 2.366285858e-05)
(0 -0 2.354643748e-05)
(0 -0 2.34077384e-05)
(0 -0 2.324766587e-05)
(0 -0 2.306733453e-05)
(0 -0 2.286800326e-05)
(0 -0 2.265105958e-05)
(0 -0 2.241779444e-05)
(0 -0 2.216952677e-05)
(0 -0 2.190776322e-05)
(0 -0 2.163409726e-05)
(0 -0 2.135018333e-05)
(0 -0 2.105773309e-05)
(0 -0 2.075851959e-05)
(0 -0 2.045438399e-05)
(0 -0 2.014723734e-05)
(0 -0 1.983905012e-05)
(0 -0 1.953183135e-05)
(0 -0 1.922760167e-05)
(0 -0 1.892836618e-05)
(0 -0 1.863609394e-05)
(0 -0 1.835270653e-05)
(0 -0 1.808007133e-05)
(0 -0 1.781999444e-05)
(0 -0 1.75742127e-05)
(0 -0 1.734438534e-05)
(0 -0 1.713208359e-05)
(0 -0 1.693877493e-05)
(0 -0 1.640157932e-05)
(0 -0 1.666133986e-05)
(0 -0 1.694496442e-05)
(0 -0 1.723020702e-05)
(0 -0 1.75096836e-05)
(0 -0 1.777903864e-05)
(0 -0 1.803516399e-05)
(0 -0 1.827567656e-05)
(0 -0 1.849859365e-05)
(0 -0 1.870219174e-05)
(0 -0 1.888495944e-05)
(0 -0 1.90455747e-05)
(0 -0 1.918290729e-05)
(0 -0 1.929603612e-05)
(0 -0 1.93842399e-05)
(0 -0 1.944694975e-05)
(0 -0 1.94837104e-05)
(0 -0 1.949419263e-05)
(0 -0 1.947824683e-05)
(0 -0 1.943595205e-05)
(0 -0 1.936761844e-05)
(0 -0 1.927377551e-05)
(0 -0 1.915502825e-05)
(0 -0 1.901218281e-05)
(0 -0 1.884626448e-05)
(0 -0 1.865843439e-05)
(0 -0 1.845000286e-05)
(0 -0 1.822222381e-05)
(0 -0 1.797642076e-05)
(0 -0 1.771410289e-05)
(0 -0 1.743688744e-05)
(0 -0 1.71464719e-05)
(0 -0 1.684461872e-05)
(0 -0 1.653314643e-05)
(0 -0 1.621392848e-05)
(0 -0 1.588889779e-05)
(0 -0 1.556005151e-05)
(0 -0 1.522944964e-05)
(0 -0 1.489920201e-05)
(0 -0 1.457144518e-05)
(0 -0 1.424831351e-05)
(0 -0 1.393191044e-05)
(0 -0 1.362428568e-05)
(0 -0 1.332742203e-05)
(0 -0 1.304322986e-05)
(0 -0 1.277354246e-05)
(0 -0 1.252010833e-05)
(0 -0 1.228457986e-05)
(0 -0 1.206849927e-05)
(0 -0 1.187328185e-05)
(0 -0 1.265169347e-05)
(0 -0 1.293342743e-05)
(0 -0 1.323987703e-05)
(0 -0 1.354643135e-05)
(0 -0 1.384507883e-05)
(0 -0 1.41312868e-05)
(0 -0 1.440185406e-05)
(0 -0 1.465430737e-05)
(0 -0 1.488662153e-05)
(0 -0 1.509709017e-05)
(0 -0 1.528424296e-05)
(0 -0 1.544679634e-05)
(0 -0 1.558365903e-05)
(0 -0 1.569395865e-05)
(0 -0 1.577703316e-05)
(0 -0 1.583237902e-05)
(0 -0 1.585961031e-05)
(0 -0 1.585847541e-05)
(0 -0 1.582891191e-05)
(0 -0 1.577110881e-05)
(0 -0 1.568544236e-05)
(0 -0 1.557255201e-05)
(0 -0 1.543331304e-05)
(0 -0 1.526874423e-05)
(0 -0 1.508006589e-05)
(0 -0 1.486849656e-05)
(0 -0 1.463532457e-05)
(0 -0 1.438202988e-05)
(0 -0 1.41102247e-05)
(0 -0 1.382163068e-05)
(0 -0 1.351806307e-05)
(0 -0 1.320141388e-05)
(0 -0 1.287363618e-05)
(0 -0 1.253673353e-05)
(0 -0 1.219275864e-05)
(0 -0 1.184381937e-05)
(0 -0 1.149208456e-05)
(0 -0 1.113978061e-05)
(0 -0 1.078917489e-05)
(0 -0 1.044254881e-05)
(0 -0 1.010216704e-05)
(0 -0 9.770248189e-06)
(0 -0 9.448940853e-06)
(0 -0 9.140307793e-06)
(0 -0 8.84631874e-06)
(0 -0 8.568846834e-06)
(0 -0 8.309662105e-06)
(0 -0 8.070420239e-06)
(0 -0 7.852647815e-06)
(0 -0 7.657724477e-06)
(0 -0 9.440580889e-06)
(0 -0 9.745705524e-06)
(0 -0 1.007685442e-05)
(0 -0 1.040706209e-05)
(0 -0 1.0727677e-05)
(0 -0 1.103392895e-05)
(0 -0 1.132246147e-05)
(0 -0 1.159066187e-05)
(0 -0 1.183641293e-05)
(0 -0 1.205796967e-05)
(0 -0 1.225384642e-05)
(0 -0 1.242274714e-05)
(0 -0 1.256357218e-05)
(0 -0 1.267545466e-05)
(0 -0 1.275775284e-05)
(0 -0 1.2809995e-05)
(0 -0 1.283183654e-05)
(0 -0 1.282308097e-05)
(0 -0 1.278370775e-05)
(0 -0 1.271397658e-05)
(0 -0 1.261444827e-05)
(0 -0 1.24859259e-05)
(0 -0 1.232948458e-05)
(0 -0 1.214624234e-05)
(0 -0 1.193739206e-05)
(0 -0 1.170432593e-05)
(0 -0 1.144859842e-05)
(0 -0 1.117190312e-05)
(0 -0 1.087605674e-05)
(0 -0 1.056298485e-05)
(0 -0 1.023470505e-05)
(0 -0 9.893308639e-06)
(0 -0 9.540944629e-06)
(0 -0 9.179810266e-06)
(0 -0 8.812150611e-06)
(0 -0 8.440264062e-06)
(0 -0 8.066506993e-06)
(0 -0 7.693288949e-06)
(0 -0 7.323054116e-06)
(0 -0 6.958250915e-06)
(0 -0 6.601296868e-06)
(0 -0 6.254545888e-06)
(0 -0 5.920261921e-06)
(0 -0 5.600601426e-06)
(0 -0 5.297605019e-06)
(0 -0 5.01319451e-06)
(0 -0 4.749166843e-06)
(0 -0 4.507182114e-06)
(0 -0 4.28874979e-06)
(0 -0 4.095215135e-06)
(0 -0 6.672241176e-06)
(0 -0 7.001838287e-06)
(0 -0 7.359034149e-06)
(0 -0 7.714529329e-06)
(0 -0 8.059060412e-06)
(0 -0 8.387580862e-06)
(0 -0 8.696530347e-06)
(0 -0 8.983121883e-06)
(0 -0 9.245113273e-06)
(0 -0 9.480682975e-06)
(0 -0 9.688290822e-06)
(0 -0 9.866591616e-06)
(0 -0 1.001444379e-05)
(0 -0 1.013095395e-05)
(0 -0 1.021547189e-05)
(0 -0 1.026752821e-05)
(0 -0 1.02867887e-05)
(0 -0 1.027308369e-05)
(0 -0 1.022649371e-05)
(0 -0 1.014738978e-05)
(0 -0 1.003648345e-05)
(0 -0 9.894672084e-06)
(0 -0 9.723004565e-06)
(0 -0 9.522732818e-06)
(0 -0 9.29529516e-06)
(0 -0 9.042289087e-06)
(0 -0 8.765455703e-06)
(0 -0 8.466676421e-06)
(0 -0 8.147963977e-06)
(0 -0 7.811446502e-06)
(0 -0 7.459348971e-06)
(0 -0 7.093973157e-06)
(0 -0 6.717679579e-06)
(0 -0 6.332877267e-06)
(0 -0 5.942023056e-06)
(0 -0 5.547626483e-06)
(0 -0 5.152252532e-06)
(0 -0 4.75851453e-06)
(0 -0 4.369052431e-06)
(0 -0 3.986497647e-06)
(0 -0 3.613432032e-06)
(0 -0 3.252351026e-06)
(0 -0 2.905636337e-06)
(0 -0 2.575538301e-06)
(0 -0 2.264166762e-06)
(0 -0 1.973488279e-06)
(0 -0 1.705323622e-06)
(0 -0 1.461339354e-06)
(0 -0 1.243033789e-06)
(0 -0 1.051721493e-06)
(0 -0 4.274734164e-06)
(0 -0 4.629733653e-06)
(0 -0 5.013975341e-06)
(0 -0 5.395881844e-06)
(0 -0 5.765695853e-06)
(0 -0 6.118069144e-06)
(0 -0 6.449178938e-06)
(0 -0 6.756033965e-06)
(0 -0 7.03624877e-06)
(0 -0 7.287901047e-06)
(0 -0 7.509368013e-06)
(0 -0 7.699227241e-06)
(0 -0 7.856268148e-06)
(0 -0 7.979542466e-06)
(0 -0 8.068365708e-06)
(0 -0 8.122263971e-06)
(0 -0 8.140925395e-06)
(0 -0 8.124226722e-06)
(0 -0 8.072324103e-06)
(0 -0 7.985649993e-06)
(0 -0 7.864900933e-06)
(0 -0 7.711071557e-06)
(0 -0 7.525404726e-06)
(0 -0 7.309325698e-06)
(0 -0 7.064430394e-06)
(0 -0 6.792482801e-06)
(0 -0 6.49540673e-06)
(0 -0 6.175277985e-06)
(0 -0 5.83431311e-06)
(0 -0 5.4748537e-06)
(0 -0 5.099347503e-06)
(0 -0 4.710327302e-06)
(0 -0 4.310391436e-06)
(0 -0 3.902190891e-06)
(0 -0 3.48842413e-06)
(0 -0 3.071836557e-06)
(0 -0 2.655217797e-06)
(0 -0 2.241390353e-06)
(0 -0 1.833185261e-06)
(0 -0 1.433404935e-06)
(0 -0 1.044780283e-06)
(0 -0 6.699331586e-07)
(0 -0 3.113519098e-07)
(0 -0 -2.862270532e-08)
(0 -0 -3.47806849e-07)
(0 -0 -6.441797535e-07)
(0 -0 -9.158864287e-07)
(0 -0 -1.161242144e-06)
(0 -0 -1.37874504e-06)
(0 -0 -1.567096373e-06)
(0 -0 2.193792046e-06)
(0 -0 2.575111895e-06)
(0 -0 2.986934469e-06)
(0 -0 3.395895388e-06)
(0 -0 3.791978795e-06)
(0 -0 4.169397733e-06)
(0 -0 4.523944896e-06)
(0 -0 4.852407845e-06)
(0 -0 5.152265347e-06)
(0 -0 5.421482903e-06)
(0 -0 5.658331096e-06)
(0 -0 5.861286684e-06)
(0 -0 6.029053441e-06)
(0 -0 6.160622099e-06)
(0 -0 6.255267283e-06)
(0 -0 6.312499866e-06)
(0 -0 6.332018404e-06)
(0 -0 6.31371463e-06)
(0 -0 6.257721544e-06)
(0 -0 6.164519301e-06)
(0 -0 6.034934959e-06)
(0 -0 5.870086732e-06)
(0 -0 5.671334541e-06)
(0 -0 5.440242553e-06)
(0 -0 5.17856165e-06)
(0 -0 4.888225167e-06)
(0 -0 4.57134447e-06)
(0 -0 4.230202172e-06)
(0 -0 3.867241773e-06)
(0 -0 3.485051355e-06)
(0 -0 3.086340137e-06)
(0 -0 2.673909414e-06)
(0 -0 2.250623643e-06)
(0 -0 1.819388999e-06)
(0 -0 1.383143291e-06)
(0 -0 9.44853951e-07)
(0 -0 5.075154137e-07)
(0 -0 7.413763785e-08)
(0 -0 -3.522776894e-07)
(0 -0 -7.687719973e-07)
(0 -0 -1.172470471e-06)
(0 -0 -1.560619838e-06)
(0 -0 -1.930614593e-06)
(0 -0 -2.280010605e-06)
(0 -0 -2.60653294e-06)
(0 -0 -2.908083007e-06)
(0 -0 -3.182745669e-06)
(0 -0 -3.428799222e-06)
(0 -0 -3.644731935e-06)
(0 -0 -3.829262752e-06)
(0 -0 3.770036956e-07)
(0 -0 7.842493169e-07)
(0 -0 1.228556741e-06)
(0 -0 1.669666562e-06)
(0 -0 2.094881445e-06)
(0 -0 2.498716255e-06)
(0 -0 2.877683823e-06)
(0 -0 3.228771712e-06)
(0 -0 3.549351167e-06)
(0 -0 3.837238712e-06)
(0 -0 4.090583385e-06)
(0 -0 4.307758657e-06)
(0 -0 4.487378259e-06)
(0 -0 4.628360395e-06)
(0 -0 4.729929456e-06)
(0 -0 4.791553431e-06)
(0 -0 4.812896207e-06)
(0 -0 4.793847516e-06)
(0 -0 4.734596624e-06)
(0 -0 4.635686361e-06)
(0 -0 4.498015601e-06)
(0 -0 4.322796728e-06)
(0 -0 4.11150317e-06)
(0 -0 3.865833264e-06)
(0 -0 3.587696177e-06)
(0 -0 3.279211928e-06)
(0 -0 2.942711577e-06)
(0 -0 2.580729571e-06)
(0 -0 2.195985194e-06)
(0 -0 1.791352368e-06)
(0 -0 1.369819915e-06)
(0 -0 9.344487734e-07)
(0 -0 4.883362447e-07)
(0 -0 3.459637248e-08)
(0 -0 -4.23640642e-07)
(0 -0 -8.832180354e-07)
(0 -0 -1.340946271e-06)
(0 -0 -1.793614051e-06)
(0 -0 -2.238018615e-06)
(0 -0 -2.671007517e-06)
(0 -0 -3.089523576e-06)
(0 -0 -3.490646462e-06)
(0 -0 -3.871625103e-06)
(0 -0 -4.229895525e-06)
(0 -0 -4.563086822e-06)
(0 -0 -4.869023879e-06)
(0 -0 -5.145734216e-06)
(0 -0 -5.391462706e-06)
(0 -0 -5.604693631e-06)
(0 -0 -5.784173016e-06)
(0 -0 -1.182573047e-06)
(0 -0 -7.509788085e-07)
(0 -0 -2.811043353e-07)
(0 -0 1.856677611e-07)
(0 -0 6.37573857e-07)
(0 -0 1.068950836e-06)
(0 -0 1.474828725e-06)
(0 -0 1.850769633e-06)
(0 -0 2.193591514e-06)
(0 -0 2.501189268e-06)
(0 -0 2.771893539e-06)
(0 -0 3.004121641e-06)
(0 -0 3.19641825e-06)
(0 -0 3.347605826e-06)
(0 -0 3.456839709e-06)
(0 -0 3.52355114e-06)
(0 -0 3.547393839e-06)
(0 -0 3.52826314e-06)
(0 -0 3.466368148e-06)
(0 -0 3.36229008e-06)
(0 -0 3.216987136e-06)
(0 -0 3.031755713e-06)
(0 -0 2.808183723e-06)
(0 -0 2.548123406e-06)
(0 -0 2.253684235e-06)
(0 -0 1.927230183e-06)
(0 -0 1.571366565e-06)
(0 -0 1.188911597e-06)
(0 -0 7.828563643e-07)
(0 -0 3.563193545e-07)
(0 -0 -8.749735859e-08)
(0 -0 -5.453431795e-07)
(0 -0 -1.013939096e-06)
(0 -0 -1.489980608e-06)
(0 -0 -1.970127086e-06)
(0 -0 -2.450988178e-06)
(0 -0 -2.92912183e-06)
(0 -0 -3.401055479e-06)
(0 -0 -3.863330713e-06)
(0 -0 -4.312559446e-06)
(0 -0 -4.7454775e-06)
(0 -0 -5.158988569e-06)
(0 -0 -5.550195778e-06)
(0 -0 -5.916418004e-06)
(0 -0 -6.25519332e-06)
(0 -0 -6.564280257e-06)
(0 -0 -6.841666352e-06)
(0 -0 -7.08558454e-06)
(0 -0 -7.29453336e-06)
(0 -0 -7.467297299e-06)
(0 -0 -2.51296572e-06)
(0 -0 -2.054803348e-06)
(0 -0 -1.560607775e-06)
(0 -0 -1.070087731e-06)
(0 -0 -5.938817131e-07)
(0 -0 -1.38153811e-07)
(0 -0 2.917437356e-07)
(0 -0 6.912610019e-07)
(0 -0 1.056787986e-06)
(0 -0 1.385460606e-06)
(0 -0 1.674935268e-06)
(0 -0 1.923296426e-06)
(0 -0 2.129038894e-06)
(0 -0 2.291037739e-06)
(0 -0 2.408482158e-06)
(0 -0 2.480801099e-06)
(0 -0 2.507631642e-06)
(0 -0 2.488857693e-06)
(0 -0 2.424691037e-06)
(0 -0 2.315737324e-06)
(0 -0 2.163012412e-06)
(0 -0 1.967917618e-06)
(0 -0 1.732203373e-06)
(0 -0 1.457939873e-06)
(0 -0 1.147492217e-06)
(0 -0 8.034893189e-07)
(0 -0 4.287828952e-07)
(0 -0 2.640327446e-08)
(0 -0 -4.004787283e-07)
(0 -0 -8.485803691e-07)
(0 -0 -1.314527906e-06)
(0 -0 -1.794871915e-06)
(0 -0 -2.286097111e-06)
(0 -0 -2.78462637e-06)
(0 -0 -3.286821853e-06)
(0 -0 -3.788988921e-06)
(0 -0 -4.287389745e-06)
(0 -0 -4.778273317e-06)
(0 -0 -5.257924026e-06)
(0 -0 -5.722722483e-06)
(0 -0 -6.169204318e-06)
(0 -0 -6.594105675e-06)
(0 -0 -6.994391557e-06)
(0 -0 -7.367268205e-06)
(0 -0 -7.710184697e-06)
(0 -0 -8.020835385e-06)
(0 -0 -8.297171899e-06)
(0 -0 -8.537422049e-06)
(0 -0 -8.740109792e-06)
(0 -0 -8.904075272e-06)
(0 -0 -3.656833247e-06)
(0 -0 -3.171270241e-06)
(0 -0 -2.645307539e-06)
(0 -0 -2.122959054e-06)
(0 -0 -1.617904067e-06)
(0 -0 -1.137012606e-06)
(0 -0 -6.846083474e-07)
(0 -0 -2.639626485e-07)
(0 -0 1.219616495e-07)
(0 -0 4.702685737e-07)
(0 -0 7.781733203e-07)
(0 -0 1.04317067e-06)
(0 -0 1.263224218e-06)
(0 -0 1.43687013e-06)
(0 -0 1.563167899e-06)
(0 -0 1.641547391e-06)
(0 -0 1.671684095e-06)
(0 -0 1.653490937e-06)
(0 -0 1.587204563e-06)
(0 -0 1.47348209e-06)
(0 -0 1.31344549e-06)
(0 -0 1.108665164e-06)
(0 -0 8.611079901e-07)
(0 -0 5.730751207e-07)
(0 -0 2.471425352e-07)
(0 -0 -1.138891533e-07)
(0 -0 -5.070303729e-07)
(0 -0 -9.291206195e-07)
(0 -0 -1.376834e-06)
(0 -0 -1.84668383e-06)
(0 -0 -2.335037641e-06)
(0 -0 -2.838143798e-06)
(0 -0 -3.352161405e-06)
(0 -0 -3.873183531e-06)
(0 -0 -4.397251567e-06)
(0 -0 -4.920366827e-06)
(0 -0 -5.438507919e-06)
(0 -0 -5.947660526e-06)
(0 -0 -6.443864124e-06)
(0 -0 -6.923273394e-06)
(0 -0 -7.382221789e-06)
(0 -0 -7.817270566e-06)
(0 -0 -8.225236555e-06)
(0 -0 -8.603203968e-06)
(0 -0 -8.948529054e-06)
(0 -0 -9.258845552e-06)
(0 -0 -9.53207586e-06)
(0 -0 -9.766447354e-06)
(0 -0 -9.960513689e-06)
(0 -0 -1.011318014e-05)
(0 -0 -4.613569871e-06)
(0 -0 -4.102669353e-06)
(0 -0 -3.548416955e-06)
(0 -0 -2.996796388e-06)
(0 -0 -2.462272902e-06)
(0 -0 -1.952682623e-06)
(0 -0 -1.473634029e-06)
(0 -0 -1.029339243e-06)
(0 -0 -6.228067819e-07)
(0 -0 -2.562685161e-07)
(0 -0 6.821776617e-08)
(0 -0 3.484476743e-07)
(0 -0 5.82197164e-07)
(0 -0 7.67551145e-07)
(0 -0 9.031144061e-07)
(0 -0 9.880096684e-07)
(0 -0 1.021782068e-06)
(0 -0 1.00435293e-06)
(0 -0 9.360577228e-07)
(0 -0 8.177089678e-07)
(0 -0 6.506162596e-07)
(0 -0 4.365432055e-07)
(0 -0 1.776263474e-07)
(0 -0 -1.237049988e-07)
(0 -0 -4.647815809e-07)
(0 -0 -8.427137146e-07)
(0 -0 -1.254387149e-06)
(0 -0 -1.696452322e-06)
(0 -0 -2.165324017e-06)
(0 -0 -2.657201955e-06)
(0 -0 -3.168112307e-06)
(0 -0 -3.693959863e-06)
(0 -0 -4.230574802e-06)
(0 -0 -4.773741207e-06)
(0 -0 -5.319207104e-06)
(0 -0 -5.862688452e-06)
(0 -0 -6.399883002e-06)
(0 -0 -6.926502938e-06)
(0 -0 -7.438327471e-06)
(0 -0 -7.931270053e-06)
(0 -0 -8.401447015e-06)
(0 -0 -8.8452298e-06)
(0 -0 -9.259273553e-06)
(0 -0 -9.640530408e-06)
(0 -0 -9.986258312e-06)
(0 -0 -1.029402874e-05)
(0 -0 -1.056173652e-05)
(0 -0 -1.078761412e-05)
(0 -0 -1.097025419e-05)
(0 -0 -1.110864421e-05)
(0 -0 -5.395472085e-06)
(0 -0 -4.859279286e-06)
(0 -0 -4.277319593e-06)
(0 -0 -3.697827895e-06)
(0 -0 -3.135775327e-06)
(0 -0 -2.599066092e-06)
(0 -0 -2.09355745e-06)
(0 -0 -1.624120308e-06)
(0 -0 -1.19462762e-06)
(0 -0 -8.079553223e-07)
(0 -0 -4.662868796e-07)
(0 -0 -1.714904391e-07)
(0 -0 7.467225382e-08)
(0 -0 2.705373945e-07)
(0 -0 4.146335524e-07)
(0 -0 5.057956126e-07)
(0 -0 5.432754431e-07)
(0 -0 5.268445737e-07)
(0 -0 4.568634816e-07)
(0 -0 3.342836042e-07)
(0 -0 1.605768847e-07)
(0 -0 -6.237133887e-08)
(0 -0 -3.323559409e-07)
(0 -0 -6.468995667e-07)
(0 -0 -1.003253912e-06)
(0 -0 -1.398378546e-06)
(0 -0 -1.828924603e-06)
(0 -0 -2.291241247e-06)
(0 -0 -2.78140777e-06)
(0 -0 -3.295284683e-06)
(0 -0 -3.828572424e-06)
(0 -0 -4.376866429e-06)
(0 -0 -4.935698963e-06)
(0 -0 -5.500561441e-06)
(0 -0 -6.066908795e-06)
(0 -0 -6.630159056e-06)
(0 -0 -7.18570718e-06)
(0 -0 -7.728965476e-06)
(0 -0 -8.255427703e-06)
(0 -0 -8.760744446e-06)
(0 -0 -9.24079461e-06)
(0 -0 -9.691740303e-06)
(0 -0 -1.011006033e-05)
(0 -0 -1.049256912e-05)
(0 -0 -1.083642692e-05)
(0 -0 -1.113914568e-05)
(0 -0 -1.139859279e-05)
(0 -0 -1.161299401e-05)
(0 -0 -1.178096469e-05)
(0 -0 -1.190159575e-05)
(0 -0 -6.012240753e-06)
(0 -0 -5.451082814e-06)
(0 -0 -4.841807289e-06)
(0 -0 -4.234920885e-06)
(0 -0 -3.646068977e-06)
(0 -0 -3.083395739e-06)
(0 -0 -2.552846558e-06)
(0 -0 -2.059386722e-06)
(0 -0 -1.607150413e-06)
(0 -0 -1.199514141e-06)
(0 -0 -8.392731602e-07)
(0 -0 -5.287538663e-07)
(0 -0 -2.698310143e-07)
(0 -0 -6.396558698e-08)
(0 -0 8.768698497e-08)
(0 -0 1.841853068e-07)
(0 -0 2.248336379e-07)
(0 -0 2.093326999e-07)
(0 -0 1.379390816e-07)
(0 -0 1.152540495e-08)
(0 -0 -1.684767285e-07)
(0 -0 -4.001856229e-07)
(0 -0 -6.813529915e-07)
(0 -0 -1.009390472e-06)
(0 -0 -1.381357879e-06)
(0 -0 -1.793950881e-06)
(0 -0 -2.243512526e-06)
(0 -0 -2.726070866e-06)
(0 -0 -3.237392043e-06)
(0 -0 -3.773037688e-06)
(0 -0 -4.328418887e-06)
(0 -0 -4.898841785e-06)
(0 -0 -5.479541261e-06)
(0 -0 -6.065700272e-06)
(0 -0 -6.652455847e-06)
(0 -0 -7.234901254e-06)
(0 -0 -7.808103336e-06)
(0 -0 -8.367150106e-06)
(0 -0 -8.907225509e-06)
(0 -0 -9.423692693e-06)
(0 -0 -9.91216884e-06)
(0 -0 -1.036858447e-05)
(0 -0 -1.078922517e-05)
(0 -0 -1.117075862e-05)
(0 -0 -1.151024443e-05)
(0 -0 -1.18051545e-05)
(0 -0 -1.205333897e-05)
(0 -0 -1.225304543e-05)
(0 -0 -1.240297533e-05)
(0 -0 -1.250222886e-05)
(0 -0 -6.471774833e-06)
(0 -0 -5.886251615e-06)
(0 -0 -5.25032114e-06)
(0 -0 -4.616657732e-06)
(0 -0 -4.001573254e-06)
(0 -0 -3.413562502e-06)
(0 -0 -2.858814523e-06)
(0 -0 -2.342431398e-06)
(0 -0 -1.868609015e-06)