/*--------------------------------*- C++ -*----------------------------------*\
| =========                 |                                                 |
| \\      /  F ield         | foam-extend: Open Source CFD                    |
|  \\    /   O peration     | Version:     4.1                                |
|   \\  /    A nd           | Web:         http://www.foam-extend.org         |
|    \\/     M anipulation  |                                                 |
\*---------------------------------------------------------------------------*/
FoamFile
{
    version     2.0;
    format      ascii;
    class       volVectorField;
    location    "500000";
    object      vorticity;
}
// * * * * * * * * * * * * * * * * * * * * * * * * * * * * * * * * * * * * * //

dimensions      [0 0 -1 0 0 0 0];

internalField   nonuniform List<vector> 
15920
(
(0 -0 -0.008297021987)
(0 -0 -0.008514210927)
(0 -0 -0.008456911744)
(0 -0 -0.008300177722)
(0 -0 -0.008115310162)
(0 -0 -0.007924537304)
(0 -0 -0.007728813743)
(0 -0 -0.007528682139)
(0 -0 -0.007326984246)
(0 -0 -0.007126697655)
(0 -0 -0.00692995679)
(0 -0 -0.006738224578)
(0 -0 -0.006552599248)
(0 -0 -0.006373942884)
(0 -0 -0.006202913154)
(0 -0 -0.006039983651)
(0 -0 -0.005885469833)
(0 -0 -0.005739553799)
(0 -0 -0.005602304486)
(0 -0 -0.005473694289)
(0 -0 -0.005353613648)
(0 -0 -0.005241884323)
(0 -0 -0.00513827157)
(0 -0 -0.005042495261)
(0 -0 -0.004954240002)
(0 -0 -0.004873164239)
(0 -0 -0.004798908277)
(0 -0 -0.004731101239)
(0 -0 -0.004669366999)
(0 -0 -0.00461332914)
(0 -0 -0.004562614966)
(0 -0 -0.004516858638)
(0 -0 -0.004475703514)
(0 -0 -0.004438803794)
(0 -0 -0.004405825558)
(0 -0 -0.004376447321)
(0 -0 -0.004350360189)
(0 -0 -0.004327267719)
(0 -0 -0.004306885559)
(0 -0 -0.004288940957)
(0 -0 -0.004273172186)
(0 -0 -0.004259327931)
(0 -0 -0.004247166698)
(0 -0 -0.004236456265)
(0 -0 -0.004226973297)
(0 -0 -0.004218503156)
(0 -0 -0.004210839876)
(0 -0 -0.004203786232)
(0 -0 -0.004197153818)
(0 -0 -0.004190763011)
(0 -0 0.0002961758004)
(0 -0 -0.0001397796812)
(0 -0 -0.0003898867877)
(0 -0 -0.0006285785188)
(0 -0 -0.0008538679599)
(0 -0 -0.001064912608)
(0 -0 -0.001262127405)
(0 -0 -0.001445931482)
(0 -0 -0.001616472692)
(0 -0 -0.001773872742)
(0 -0 -0.001918381439)
(0 -0 -0.002050370262)
(0 -0 -0.002170287625)
(0 -0 -0.002278635807)
(0 -0 -0.002375963597)
(0 -0 -0.002462860075)
(0 -0 -0.002539945911)
(0 -0 -0.002607863855)
(0 -0 -0.002667269867)
(0 -0 -0.002718824888)
(0 -0 -0.002763187135)
(0 -0 -0.002801004925)
(0 -0 -0.002832910153)
(0 -0 -0.002859512528)
(0 -0 -0.002881394669)
(0 -0 -0.002899108135)
(0 -0 -0.002913170396)
(0 -0 -0.002924062656)
(0 -0 -0.002932228571)
(0 -0 -0.002938073758)
(0 -0 -0.002941966005)
(0 -0 -0.002944236086)
(0 -0 -0.002945179074)
(0 -0 -0.002945056037)
(0 -0 -0.002944096026)
(0 -0 -0.002942498239)
(0 -0 -0.002940434308)
(0 -0 -0.002938050601)
(0 -0 -0.002935470513)
(0 -0 -0.002932796685)
(0 -0 -0.002930113115)
(0 -0 -0.002927487129)
(0 -0 -0.002924971228)
(0 -0 -0.002922604804)
(0 -0 -0.002920415711)
(0 -0 -0.002918421602)
(0 -0 -0.002916631102)
(0 -0 -0.002915044969)
(0 -0 -0.002913657148)
(0 -0 -0.002912455632)
(0 -0 0.0002638427295)
(0 -0 0.0001572153647)
(0 -0 0.0001213444034)
(0 -0 7.321378291e-05)
(0 -0 1.495190935e-05)
(0 -0 -5.112798916e-05)
(0 -0 -0.0001229196857)
(0 -0 -0.0001987030532)
(0 -0 -0.0002770199133)
(0 -0 -0.0003566140424)
(0 -0 -0.0004364189631)
(0 -0 -0.0005155460976)
(0 -0 -0.0005932652209)
(0 -0 -0.0006689849913)
(0 -0 -0.0007422368891)
(0 -0 -0.0008126613532)
(0 -0 -0.0008799948388)
(0 -0 -0.0009440575397)
(0 -0 -0.001004741838)
(0 -0 -0.001062001578)
(0 -0 -0.001115842168)
(0 -0 -0.00116631149)
(0 -0 -0.001213491638)
(0 -0 -0.001257491519)
(0 -0 -0.001298440305)
(0 -0 -0.001336481739)
(0 -0 -0.001371769259)
(0 -0 -0.001404461951)
(0 -0 -0.001434721205)
(0 -0 -0.001462708045)
(0 -0 -0.001488581025)
(0 -0 -0.001512494636)
(0 -0 -0.001534598146)
(0 -0 -0.001555034786)
(0 -0 -0.001573941234)
(0 -0 -0.001591447317)
(0 -0 -0.001607675899)
(0 -0 -0.001622742896)
(0 -0 -0.001636757382)
(0 -0 -0.001649821782)
(0 -0 -0.001662032072)
(0 -0 -0.001673478006)
(0 -0 -0.001684243373)
(0 -0 -0.001694406293)
(0 -0 -0.001704039586)
(0 -0 -0.001713211119)
(0 -0 -0.001721983327)
(0 -0 -0.001730413575)
(0 -0 -0.001738554298)
(0 -0 -0.001746453092)
(0 -0 0.0001950090642)
(0 -0 0.0001341321756)
(0 -0 0.0001319321531)
(0 -0 0.0001267770492)
(0 -0 0.0001181650387)
(0 -0 0.0001058136272)
(0 -0 8.970033257e-05)
(0 -0 6.999304668e-05)
(0 -0 4.697842463e-05)
(0 -0 2.102159021e-05)
(0 -0 -7.46327309e-06)
(0 -0 -3.803952504e-05)
(0 -0 -7.026948614e-05)
(0 -0 -0.0001037299022)
(0 -0 -0.0001380228144)
(0 -0 -0.0001727830191)
(0 -0 -0.0002076827276)
(0 -0 -0.0002424339195)
(0 -0 -0.0002767887773)
(0 -0 -0.0003105387572)
(0 -0 -0.0003435126443)
(0 -0 -0.0003755738816)
(0 -0 -0.0004066174418)
(0 -0 -0.0004365664579)
(0 -0 -0.0004653687926)
(0 -0 -0.0004929936454)
(0 -0 -0.0005194283501)
(0 -0 -0.0005446754485)
(0 -0 -0.0005687500136)
(0 -0 -0.0005916772812)
(0 -0 -0.0006134905887)
(0 -0 -0.0006342296088)
(0 -0 -0.0006539388598)
(0 -0 -0.0006726664646)
(0 -0 -0.0006904631326)
(0 -0 -0.0007073813316)
(0 -0 -0.0007234746222)
(0 -0 -0.0007387971084)
(0 -0 -0.000753403017)
(0 -0 -0.0007673463834)
(0 -0 -0.0007806807206)
(0 -0 -0.000793458809)
(0 -0 -0.0008057325712)
(0 -0 -0.0008175529285)
(0 -0 -0.0008289705707)
(0 -0 -0.0008400512526)
(0 -0 -0.0008508407208)
(0 -0 -0.0008613780293)
(0 -0 -0.0008717002672)
(0 -0 -0.0008818423888)
(0 -0 0.0001421882283)
(0 -0 9.893856631e-05)
(0 -0 9.997602038e-05)
(0 -0 0.0001007508717)
(0 -0 0.0001010157387)
(0 -0 0.0001005163601)
(0 -0 9.902575278e-05)
(0 -0 9.637125485e-05)
(0 -0 9.243679382e-05)
(0 -0 8.715895619e-05)
(0 -0 8.052386608e-05)
(0 -0 7.25623531e-05)
(0 -0 6.33427618e-05)
(0 -0 5.296283535e-05)
(0 -0 4.154176409e-05)
(0 -0 2.921281032e-05)
(0 -0 1.611672779e-05)
(0 -0 2.39612955e-06)
(0 -0 -1.180911334e-05)
(0 -0 -2.636545987e-05)
(0 -0 -4.114834328e-05)
(0 -0 -5.6043971e-05)
(0 -0 -7.095039917e-05)
(0 -0 -8.577800794e-05)
(0 -0 -0.0001004495012)
(0 -0 -0.0001148995441)
(0 -0 -0.0001290741455)
(0 -0 -0.0001429298766)
(0 -0 -0.0001564329906)
(0 -0 -0.0001695585031)
(0 -0 -0.0001822892762)
(0 -0 -0.0001946151371)
(0 -0 -0.0002065320515)
(0 -0 -0.0002180413614)
(0 -0 -0.000229149085)
(0 -0 -0.0002398652932)
(0 -0 -0.0002502035409)
(0 -0 -0.0002601799224)
(0 -0 -0.000269813148)
(0 -0 -0.0002791244134)
(0 -0 -0.000288134799)
(0 -0 -0.0002968688069)
(0 -0 -0.0003053553681)
(0 -0 -0.0003136240724)
(0 -0 -0.0003217078296)
(0 -0 -0.000329618659)
(0 -0 -0.0003373806357)
(0 -0 -0.0003450274882)
(0 -0 -0.0003525939845)
(0 -0 -0.0003601144883)
(0 -0 0.0001095872959)
(0 -0 7.593111328e-05)
(0 -0 7.658908318e-05)
(0 -0 7.733344644e-05)
(0 -0 7.810993484e-05)
(0 -0 7.885311505e-05)
(0 -0 7.948719888e-05)
(0 -0 7.993367989e-05)
(0 -0 8.011697966e-05)
(0 -0 7.996788247e-05)
(0 -0 7.942679218e-05)
(0 -0 7.844660501e-05)
(0 -0 7.699439514e-05)
(0 -0 7.505184348e-05)
(0 -0 7.261472847e-05)
(0 -0 6.969174728e-05)
(0 -0 6.63028595e-05)
(0 -0 6.247733586e-05)
(0 -0 5.82516868e-05)
(0 -0 5.366761563e-05)
(0 -0 4.877010253e-05)
(0 -0 4.360568987e-05)
(0 -0 3.82210096e-05)
(0 -0 3.266156866e-05)
(0 -0 2.697078919e-05)
(0 -0 2.11892867e-05)
(0 -0 1.535436051e-05)
(0 -0 9.49966574e-06)
(0 -0 3.655035847e-06)
(0 -0 -2.153574383e-06)
(0 -0 -7.904052675e-06)
(0 -0 -1.357802248e-05)
(0 -0 -1.916067018e-05)
(0 -0 -2.464053959e-05)
(0 -0 -3.000890686e-05)
(0 -0 -3.52597599e-05)
(0 -0 -4.038969566e-05)
(0 -0 -4.53796732e-05)
(0 -0 -5.023063797e-05)
(0 -0 -5.495846666e-05)
(0 -0 -5.958205925e-05)
(0 -0 -6.410611489e-05)
(0 -0 -6.85340573e-05)
(0 -0 -7.287859213e-05)
(0 -0 -7.714969141e-05)
(0 -0 -8.134589634e-05)
(0 -0 -8.548948211e-05)
(0 -0 -8.960456285e-05)
(0 -0 -9.371500642e-05)
(0 -0 -9.78454299e-05)
(0 -0 8.712267041e-05)
(0 -0 6.019952411e-05)
(0 -0 6.05500137e-05)
(0 -0 6.097239205e-05)
(0 -0 6.145417852e-05)
(0 -0 6.198104321e-05)
(0 -0 6.253566447e-05)
(0 -0 6.309771071e-05)
(0 -0 6.36445487e-05)
(0 -0 6.415197316e-05)
(0 -0 6.459509452e-05)
(0 -0 6.49494773e-05)
(0 -0 6.519230782e-05)
(0 -0 6.530339072e-05)
(0 -0 6.526591174e-05)
(0 -0 6.506695733e-05)
(0 -0 6.469778686e-05)
(0 -0 6.415386718e-05)
(0 -0 6.34347e-05)
(0 -0 6.254348589e-05)
(0 -0 6.14866718e-05)
(0 -0 6.027342658e-05)
(0 -0 5.891508418e-05)
(0 -0 5.742458765e-05)
(0 -0 5.581595928e-05)
(0 -0 5.410381483e-05)
(0 -0 5.230293293e-05)
(0 -0 5.042788527e-05)
(0 -0 4.849272916e-05)
(0 -0 4.651076516e-05)
(0 -0 4.449435925e-05)
(0 -0 4.245484461e-05)
(0 -0 4.040315688e-05)
(0 -0 3.83491602e-05)
(0 -0 3.63175118e-05)
(0 -0 3.432638045e-05)
(0 -0 3.236081982e-05)
(0 -0 3.039789666e-05)
(0 -0 2.845012162e-05)
(0 -0 2.652998512e-05)
(0 -0 2.464033743e-05)
(0 -0 2.277111517e-05)
(0 -0 2.091518405e-05)
(0 -0 1.907160063e-05)
(0 -0 1.723726391e-05)
(0 -0 1.539191759e-05)
(0 -0 1.353096699e-05)
(0 -0 1.165376817e-05)
(0 -0 9.758753852e-06)
(0 -0 7.843480116e-06)
(0 -0 7.050955243e-05)
(0 -0 4.864665655e-05)
(0 -0 4.884592386e-05)
(0 -0 4.908900315e-05)
(0 -0 4.937070834e-05)
(0 -0 4.968556947e-05)
(0 -0 5.002823331e-05)
(0 -0 5.039298516e-05)
(0 -0 5.07734603e-05)
(0 -0 5.116262575e-05)
(0 -0 5.155283896e-05)
(0 -0 5.193597495e-05)
(0 -0 5.230363987e-05)
(0 -0 5.264743905e-05)
(0 -0 5.295926106e-05)
(0 -0 5.323155282e-05)
(0 -0 5.345756561e-05)
(0 -0 5.363155512e-05)
(0 -0 5.374892454e-05)
(0 -0 5.380630715e-05)
(0 -0 5.380159003e-05)
(0 -0 5.373388499e-05)
(0 -0 5.360345468e-05)
(0 -0 5.341160425e-05)
(0 -0 5.316054839e-05)
(0 -0 5.285326382e-05)
(0 -0 5.24933367e-05)
(0 -0 5.208481842e-05)
(0 -0 5.163210169e-05)
(0 -0 5.113998894e-05)
(0 -0 5.061391941e-05)
(0 -0 5.00597311e-05)
(0 -0 4.951195461e-05)
(0 -0 4.896007736e-05)
(0 -0 4.837706356e-05)
(0 -0 4.776410188e-05)
(0 -0 4.715017294e-05)
(0 -0 4.652050293e-05)
(0 -0 4.585895462e-05)
(0 -0 4.516794028e-05)
(0 -0 4.445653156e-05)
(0 -0 4.373070813e-05)
(0 -0 4.299216467e-05)
(0 -0 4.224237111e-05)
(0 -0 4.148251154e-05)
(0 -0 4.071307395e-05)
(0 -0 3.993431505e-05)
(0 -0 3.914634855e-05)
(0 -0 3.834912799e-05)
(0 -0 3.754243006e-05)
(0 -0 5.764624757e-05)
(0 -0 3.973725486e-05)
(0 -0 3.985907795e-05)
(0 -0 4.000760684e-05)
(0 -0 4.017986913e-05)
(0 -0 4.037255962e-05)
(0 -0 4.058277814e-05)
(0 -0 4.080783279e-05)
(0 -0 4.104495834e-05)
(0 -0 4.129127993e-05)
(0 -0 4.154384498e-05)
(0 -0 4.179962494e-05)
(0 -0 4.205551474e-05)
(0 -0 4.230835653e-05)
(0 -0 4.255498475e-05)
(0 -0 4.27922836e-05)
(0 -0 4.301725105e-05)
(0 -0 4.322706504e-05)
(0 -0 4.341914697e-05)
(0 -0 4.359121777e-05)
(0 -0 4.37413432e-05)
(0 -0 4.386796571e-05)
(0 -0 4.396992226e-05)
(0 -0 4.404644806e-05)
(0 -0 4.409716867e-05)
(0 -0 4.412208862e-05)
(0 -0 4.412158588e-05)
(0 -0 4.409664611e-05)
(0 -0 4.404905363e-05)
(0 -0 4.398738701e-05)
(0 -0 4.393510817e-05)
(0 -0 4.386599116e-05)
(0 -0 4.374905057e-05)
(0 -0 4.362157995e-05)
(0 -0 4.347837878e-05)
(0 -0 4.329364575e-05)
(0 -0 4.30631763e-05)
(0 -0 4.281331318e-05)
(0 -0 4.255184892e-05)
(0 -0 4.227933595e-05)
(0 -0 4.199656491e-05)
(0 -0 4.170446077e-05)
(0 -0 4.140395612e-05)
(0 -0 4.109598199e-05)
(0 -0 4.0781454e-05)
(0 -0 4.046124698e-05)
(0 -0 4.013618436e-05)
(0 -0 3.980703051e-05)
(0 -0 3.947448113e-05)
(0 -0 3.913915494e-05)
(0 -0 4.73457183e-05)
(0 -0 3.26210898e-05)
(0 -0 3.270108654e-05)
(0 -0 3.279749216e-05)
(0 -0 3.2908456e-05)
(0 -0 3.303176822e-05)
(0 -0 3.316549367e-05)
(0 -0 3.33079035e-05)
(0 -0 3.345726801e-05)
(0 -0 3.361183754e-05)
(0 -0 3.376989841e-05)
(0 -0 3.392979465e-05)
(0 -0 3.408992153e-05)
(0 -0 3.424872015e-05)
(0 -0 3.440467975e-05)
(0 -0 3.455634337e-05)
(0 -0 3.470231522e-05)
(0 -0 3.484127058e-05)
(0 -0 3.497196813e-05)
(0 -0 3.50932642e-05)
(0 -0 3.520412728e-05)
(0 -0 3.53036518e-05)
(0 -0 3.539107055e-05)
(0 -0 3.546577166e-05)
(0 -0 3.552732563e-05)
(0 -0 3.557576337e-05)
(0 -0 3.56117233e-05)
(0 -0 3.56452401e-05)
(0 -0 3.56870455e-05)
(0 -0 3.570826533e-05)
(0 -0 3.56923216e-05)
(0 -0 3.568398286e-05)
(0 -0 3.565051085e-05)
(0 -0 3.556952276e-05)
(0 -0 3.546248174e-05)
(0 -0 3.534717337e-05)
(0 -0 3.522333162e-05)
(0 -0 3.5091434e-05)
(0 -0 3.495215239e-05)
(0 -0 3.480616719e-05)
(0 -0 3.465418787e-05)
(0 -0 3.449695848e-05)
(0 -0 3.433525245e-05)
(0 -0 3.41698659e-05)
(0 -0 3.40016099e-05)
(0 -0 3.383130215e-05)
(0 -0 3.365975859e-05)
(0 -0 3.348778514e-05)
(0 -0 3.331616831e-05)
(0 -0 3.314566661e-05)
(0 -0 3.889009278e-05)
(0 -0 2.678949906e-05)
(0 -0 2.684614704e-05)
(0 -0 2.691264281e-05)
(0 -0 2.698778123e-05)
(0 -0 2.707004905e-05)
(0 -0 2.715811222e-05)
(0 -0 2.725078509e-05)
(0 -0 2.734687192e-05)
(0 -0 2.744515104e-05)
(0 -0 2.754442946e-05)
(0 -0 2.764357508e-05)
(0 -0 2.774152145e-05)
(0 -0 2.783726684e-05)
(0 -0 2.792987517e-05)
(0 -0 2.801847633e-05)
(0 -0 2.810226463e-05)
(0 -0 2.818049707e-05)
(0 -0 2.825249276e-05)
(0 -0 2.831763399e-05)
(0 -0 2.837536935e-05)
(0 -0 2.842522381e-05)
(0 -0 2.846682012e-05)
(0 -0 2.850013581e-05)
(0 -0 2.852558789e-05)
(0 -0 2.855328036e-05)
(0 -0 2.858659449e-05)
(0 -0 2.859856897e-05)
(0 -0 2.858726783e-05)
(0 -0 2.858232183e-05)
(0 -0 2.855182115e-05)
(0 -0 2.847899465e-05)
(0 -0 2.839889123e-05)
(0 -0 2.831263159e-05)
(0 -0 2.822001365e-05)
(0 -0 2.812137723e-05)
(0 -0 2.80171045e-05)
(0 -0 2.790764066e-05)
(0 -0 2.779349171e-05)
(0 -0 2.767521513e-05)
(0 -0 2.755341214e-05)
(0 -0 2.742872156e-05)
(0 -0 2.730181413e-05)
(0 -0 2.717338704e-05)
(0 -0 2.704415856e-05)
(0 -0 2.691486241e-05)
(0 -0 2.678624156e-05)
(0 -0 2.66590413e-05)
(0 -0 2.653400153e-05)
(0 -0 2.641184934e-05)
(0 -0 3.181686811e-05)
(0 -0 2.191731924e-05)
(0 -0 2.19609313e-05)
(0 -0 2.200998226e-05)
(0 -0 2.206365256e-05)
(0 -0 2.212088155e-05)
(0 -0 2.218074083e-05)
(0 -0 2.224241138e-05)
(0 -0 2.230505517e-05)
(0 -0 2.236779923e-05)
(0 -0 2.242978218e-05)
(0 -0 2.249018687e-05)
(0 -0 2.254825054e-05)
(0 -0 2.260326804e-05)
(0 -0 2.265459438e-05)
(0 -0 2.270164528e-05)
(0 -0 2.274389503e-05)
(0 -0 2.278087354e-05)
(0 -0 2.281216443e-05)
(0 -0 2.28374097e-05)
(0 -0 2.285632371e-05)
(0 -0 2.286891765e-05)
(0 -0 2.287551793e-05)
(0 -0 2.288542342e-05)
(0 -0 2.289787098e-05)
(0 -0 2.288921849e-05)
(0 -0 2.286608587e-05)
(0 -0 2.284786211e-05)
(0 -0 2.280624564e-05)
(0 -0 2.273381857e-05)
(0 -0 2.265657454e-05)
(0 -0 2.257374306e-05)
(0 -0 2.248559134e-05)
(0 -0 2.239240896e-05)
(0 -0 2.229449422e-05)
(0 -0 2.219218244e-05)
(0 -0 2.208584974e-05)
(0 -0 2.197591444e-05)
(0 -0 2.186283612e-05)
(0 -0 2.174711285e-05)
(0 -0 2.162927816e-05)
(0 -0 2.150989815e-05)
(0 -0 2.138956845e-05)
(0 -0 2.126891041e-05)
(0 -0 2.114856651e-05)
(0 -0 2.102919504e-05)
(0 -0 2.091146416e-05)
(0 -0 2.07960457e-05)
(0 -0 2.068360854e-05)
(0 -0 2.05748118e-05)
(0 -0 2.581378129e-05)
(0 -0 1.778614565e-05)
(0 -0 1.782280727e-05)
(0 -0 1.78618101e-05)
(0 -0 1.790257128e-05)
(0 -0 1.794432624e-05)
(0 -0 1.798642085e-05)
(0 -0 1.80282889e-05)
(0 -0 1.806934311e-05)
(0 -0 1.810895867e-05)
(0 -0 1.814651176e-05)
(0 -0 1.818140991e-05)
(0 -0 1.821310423e-05)
(0 -0 1.82410948e-05)
(0 -0 1.826493411e-05)
(0 -0 1.828422775e-05)
(0 -0 1.829863295e-05)
(0 -0 1.830786058e-05)
(0 -0 1.831168326e-05)
(0 -0 1.831013019e-05)
(0 -0 1.830343682e-05)
(0 -0 1.829983655e-05)
(0 -0 1.829583361e-05)
(0 -0 1.827174138e-05)
(0 -0 1.823862582e-05)
(0 -0 1.820973011e-05)
(0 -0 1.81601065e-05)
(0 -0 1.808731301e-05)
(0 -0 1.801008908e-05)
(0 -0 1.792791249e-05)
(0 -0 1.78410105e-05)
(0 -0 1.774958997e-05)
(0 -0 1.765388233e-05)
(0 -0 1.755415042e-05)
(0 -0 1.745069195e-05)
(0 -0 1.734384046e-05)
(0 -0 1.723396407e-05)
(0 -0 1.7121464e-05)
(0 -0 1.700677366e-05)
(0 -0 1.689035751e-05)
(0 -0 1.677270945e-05)
(0 -0 1.665435079e-05)
(0 -0 1.653582773e-05)
(0 -0 1.641770816e-05)
(0 -0 1.63005777e-05)
(0 -0 1.618503484e-05)
(0 -0 1.607168563e-05)
(0 -0 1.59611381e-05)
(0 -0 1.585399656e-05)
(0 -0 1.575085544e-05)
(0 -0 2.066232943e-05)
(0 -0 1.424369803e-05)
(0 -0 1.427715436e-05)
(0 -0 1.431069003e-05)
(0 -0 1.434387077e-05)
(0 -0 1.437612819e-05)
(0 -0 1.440699423e-05)
(0 -0 1.443607787e-05)
(0 -0 1.446296934e-05)
(0 -0 1.448722293e-05)
(0 -0 1.450838892e-05)
(0 -0 1.452604124e-05)
(0 -0 1.453979069e-05)
(0 -0 1.454929163e-05)
(0 -0 1.455424684e-05)
(0 -0 1.455441101e-05)
(0 -0 1.454959717e-05)
(0 -0 1.453984706e-05)
(0 -0 1.452531437e-05)
(0 -0 1.451327808e-05)
(0 -0 1.449798363e-05)
(0 -0 1.446398454e-05)
(0 -0 1.442486244e-05)
(0 -0 1.438906869e-05)
(0 -0 1.433525411e-05)
(0 -0 1.426332388e-05)
(0 -0 1.418715813e-05)
(0 -0 1.410640804e-05)
(0 -0 1.40212683e-05)
(0 -0 1.39319193e-05)
(0 -0 1.383856058e-05)
(0 -0 1.374141614e-05)
(0 -0 1.364073798e-05)
(0 -0 1.353680619e-05)
(0 -0 1.342992774e-05)
(0 -0 1.332043614e-05)
(0 -0 1.320869129e-05)
(0 -0 1.309507919e-05)
(0 -0 1.298001149e-05)
(0 -0 1.286392483e-05)
(0 -0 1.274727961e-05)
(0 -0 1.263055855e-05)
(0 -0 1.251426472e-05)
(0 -0 1.239891913e-05)
(0 -0 1.228505769e-05)
(0 -0 1.217322749e-05)
(0 -0 1.206398242e-05)
(0 -0 1.195787813e-05)
(0 -0 1.185546635e-05)
(0 -0 1.175728856e-05)
(0 -0 1.620529538e-05)
(0 -0 1.118068985e-05)
(0 -0 1.121332032e-05)
(0 -0 1.124432104e-05)
(0 -0 1.127335232e-05)
(0 -0 1.129997768e-05)
(0 -0 1.132385644e-05)
(0 -0 1.134471979e-05)
(0 -0 1.13622847e-05)
(0 -0 1.137623583e-05)
(0 -0 1.138625229e-05)
(0 -0 1.139203314e-05)
(0 -0 1.139331256e-05)
(0 -0 1.138986937e-05)
(0 -0 1.138156445e-05)
(0 -0 1.136840346e-05)
(0 -0 1.135046547e-05)
(0 -0 1.133424692e-05)
(0 -0 1.131193658e-05)
(0 -0 1.127237011e-05)
(0 -0 1.123103633e-05)
(0 -0 1.119142715e-05)
(0 -0 1.113602594e-05)
(0 -0 1.1066325e-05)
(0 -0 1.099239866e-05)
(0 -0 1.091403393e-05)
(0 -0 1.083142724e-05)
(0 -0 1.074476652e-05)
(0 -0 1.065425323e-05)
(0 -0 1.056010491e-05)
(0 -0 1.04625572e-05)
(0 -0 1.036186392e-05)
(0 -0 1.025829679e-05)
(0 -0 1.015214564e-05)
(0 -0 1.004371894e-05)
(0 -0 9.933344712e-06)
(0 -0 9.821371049e-06)
(0 -0 9.708166425e-06)
(0 -0 9.594119753e-06)
(0 -0 9.47964039e-06)
(0 -0 9.365157952e-06)
(0 -0 9.251121706e-06)
(0 -0 9.137999318e-06)
(0 -0 9.026274898e-06)
(0 -0 8.916446386e-06)
(0 -0 8.809022264e-06)
(0 -0 8.704517495e-06)
(0 -0 8.603448614e-06)
(0 -0 8.506327787e-06)
(0 -0 8.413655883e-06)
(0 -0 1.232707967e-05)
(0 -0 8.516914904e-06)
(0 -0 8.550265068e-06)
(0 -0 8.580653859e-06)
(0 -0 8.607802075e-06)
(0 -0 8.631362946e-06)
(0 -0 8.651083813e-06)
(0 -0 8.666781865e-06)
(0 -0 8.678265438e-06)
(0 -0 8.685315676e-06)
(0 -0 8.687709637e-06)
(0 -0 8.685246165e-06)
(0 -0 8.677812375e-06)
(0 -0 8.665355532e-06)
(0 -0 8.648949622e-06)
(0 -0 8.632142485e-06)
(0 -0 8.606584298e-06)
(0 -0 8.56514669e-06)
(0 -0 8.525019122e-06)
(0 -0 8.484224296e-06)
(0 -0 8.429033597e-06)
(0 -0 8.362786679e-06)
(0 -0 8.292169075e-06)
(0 -0 8.217105081e-06)
(0 -0 8.137810194e-06)
(0 -0 8.054487537e-06)
(0 -0 7.967347092e-06)
(0 -0 7.876610306e-06)
(0 -0 7.782512835e-06)
(0 -0 7.685304029e-06)
(0 -0 7.585245214e-06)
(0 -0 7.482608406e-06)
(0 -0 7.377676105e-06)
(0 -0 7.270742188e-06)
(0 -0 7.162113441e-06)
(0 -0 7.052111222e-06)
(0 -0 6.941072913e-06)
(0 -0 6.829352984e-06)
(0 -0 6.717323668e-06)
(0 -0 6.605375276e-06)
(0 -0 6.493916135e-06)
(0 -0 6.383371987e-06)
(0 -0 6.274184736e-06)
(0 -0 6.166810603e-06)
(0 -0 6.061717826e-06)
(0 -0 5.95938383e-06)
(0 -0 5.860291515e-06)
(0 -0 5.764924551e-06)
(0 -0 5.673761695e-06)
(0 -0 5.587270027e-06)
(0 -0 8.941235786e-06)
(0 -0 6.192475771e-06)
(0 -0 6.227559844e-06)
(0 -0 6.258616409e-06)
(0 -0 6.28540482e-06)
(0 -0 6.307639812e-06)
(0 -0 6.32513006e-06)
(0 -0 6.337754251e-06)
(0 -0 6.345390238e-06)
(0 -0 6.34791264e-06)
(0 -0 6.345202324e-06)
(0 -0 6.337156289e-06)
(0 -0 6.325660339e-06)
(0 -0 6.309800737e-06)
(0 -0 6.283828853e-06)
(0 -0 6.246155e-06)
(0 -0 6.21057777e-06)
(0 -0 6.171622683e-06)
(0 -0 6.118883005e-06)
(0 -0 6.057897808e-06)
(0 -0 5.99216531e-06)
(0 -0 5.921716406e-06)
(0 -0 5.846791292e-06)
(0 -0 5.767635412e-06)
(0 -0 5.684505299e-06)
(0 -0 5.597664172e-06)
(0 -0 5.507379107e-06)
(0 -0 5.413919126e-06)
(0 -0 5.317554688e-06)
(0 -0 5.218558455e-06)
(0 -0 5.117206821e-06)
(0 -0 5.013781815e-06)
(0 -0 4.908573037e-06)
(0 -0 4.801879406e-06)
(0 -0 4.69401064e-06)
(0 -0 4.585288469e-06)
(0 -0 4.476047643e-06)
(0 -0 4.36663675e-06)
(0 -0 4.257418775e-06)
(0 -0 4.148771307e-06)
(0 -0 4.041086359e-06)
(0 -0 3.9347698e-06)
(0 -0 3.830240353e-06)
(0 -0 3.72792813e-06)
(0 -0 3.628272854e-06)
(0 -0 3.531721803e-06)
(0 -0 3.438727054e-06)
(0 -0 3.349741534e-06)
(0 -0 3.265213816e-06)
(0 -0 3.185581628e-06)
(0 -0 5.982249886e-06)
(0 -0 4.162033156e-06)
(0 -0 4.199510156e-06)
(0 -0 4.232082322e-06)
(0 -0 4.259537641e-06)
(0 -0 4.281636545e-06)
(0 -0 4.29823586e-06)
(0 -0 4.309264923e-06)
(0 -0 4.314722019e-06)
(0 -0 4.315207707e-06)
(0 -0 4.311008927e-06)
(0 -0 4.299011829e-06)
(0 -0 4.276818081e-06)
(0 -0 4.248762993e-06)
(0 -0 4.219334028e-06)
(0 -0 4.183472653e-06)
(0 -0 4.135655112e-06)
(0 -0 4.081751143e-06)
(0 -0 4.022562668e-06)
(0 -0 3.958261631e-06)
(0 -0 3.889124213e-06)
(0 -0 3.815423261e-06)
(0 -0 3.737435145e-06)
(0 -0 3.655441474e-06)
(0 -0 3.569730329e-06)
(0 -0 3.480595575e-06)
(0 -0 3.388335172e-06)
(0 -0 3.293249519e-06)
(0 -0 3.195640395e-06)
(0 -0 3.095810653e-06)
(0 -0 2.994064535e-06)
(0 -0 2.890708414e-06)
(0 -0 2.786051828e-06)
(0 -0 2.680408665e-06)
(0 -0 2.574098409e-06)
(0 -0 2.467447371e-06)
(0 -0 2.360789915e-06)
(0 -0 2.254469618e-06)
(0 -0 2.148840244e-06)
(0 -0 2.044266242e-06)
(0 -0 1.941122646e-06)
(0 -0 1.839794532e-06)
(0 -0 1.740676253e-06)
(0 -0 1.64417049e-06)
(0 -0 1.550687098e-06)
(0 -0 1.460641843e-06)
(0 -0 1.374454926e-06)
(0 -0 1.292548791e-06)
(0 -0 1.215344452e-06)
(0 -0 1.143255455e-06)
(0 -0 3.40144584e-06)
(0 -0 2.391380129e-06)
(0 -0 2.431354127e-06)
(0 -0 2.465789726e-06)
(0 -0 2.494500087e-06)
(0 -0 2.517323759e-06)
(0 -0 2.53424993e-06)
(0 -0 2.545190451e-06)
(0 -0 2.548803295e-06)
(0 -0 2.544272955e-06)
(0 -0 2.532448999e-06)
(0 -0 2.516709083e-06)
(0 -0 2.495836341e-06)
(0 -0 2.466033527e-06)
(0 -0 2.427339393e-06)
(0 -0 2.382681223e-06)
(0 -0 2.332089007e-06)
(0 -0 2.275800561e-06)
(0 -0 2.214096184e-06)
(0 -0 2.147274105e-06)
(0 -0 2.075648186e-06)
(0 -0 1.999543313e-06)
(0 -0 1.919291853e-06)
(0 -0 1.835230576e-06)
(0 -0 1.747698135e-06)
(0 -0 1.657033078e-06)
(0 -0 1.563572384e-06)
(0 -0 1.467650555e-06)
(0 -0 1.369599216e-06)
(0 -0 1.269747174e-06)
(0 -0 1.16842088e-06)
(0 -0 1.065945189e-06)
(0 -0 9.626443772e-07)
(0 -0 8.5884335e-07)
(0 -0 7.548689787e-07)
(0 -0 6.510514798e-07)
(0 -0 5.477257421e-07)
(0 -0 4.452325218e-07)
(0 -0 3.439193749e-07)
(0 -0 2.44141051e-07)
(0 -0 1.462590971e-07)
(0 -0 5.064080024e-08)
(0 -0 -4.234201038e-08)
(0 -0 -1.32313858e-07)
(0 -0 -2.188960962e-07)
(0 -0 -3.017069207e-07)
(0 -0 -3.803608683e-07)
(0 -0 -4.544682218e-07)
(0 -0 -5.23635593e-07)
(0 -0 -5.874700739e-07)
(0 -0 1.140469887e-06)
(0 -0 8.440307781e-07)
(0 -0 8.885269849e-07)
(0 -0 9.262873729e-07)
(0 -0 9.571591674e-07)
(0 -0 9.808878253e-07)
(0 -0 9.972800053e-07)
(0 -0 1.006437257e-06)
(0 -0 1.009621498e-06)
(0 -0 1.0063907e-06)
(0 -0 9.953090017e-07)
(0 -0 9.758729869e-07)
(0 -0 9.495058687e-07)
(0 -0 9.164184197e-07)
(0 -0 8.767334188e-07)
(0 -0 8.307020223e-07)
(0 -0 7.786047808e-07)
(0 -0 7.207479021e-07)
(0 -0 6.574563098e-07)
(0 -0 5.890691406e-07)
(0 -0 5.159370381e-07)
(0 -0 4.384200959e-07)
(0 -0 3.568859368e-07)
(0 -0 2.717076402e-07)
(0 -0 1.832614481e-07)
(0 -0 9.192436559e-08)
(0 -0 -1.928165767e-09)
(0 -0 -9.792427313e-08)
(0 -0 -1.956971372e-07)
(0 -0 -2.948858438e-07)
(0 -0 -3.951355847e-07)
(0 -0 -4.960972596e-07)
(0 -0 -5.974265835e-07)
(0 -0 -6.987827996e-07)
(0 -0 -7.998270752e-07)
(0 -0 -9.002206896e-07)
(0 -0 -9.996232392e-07)
(0 -0 -1.097691187e-06)
(0 -0 -1.194077068e-06)
(0 -0 -1.288429571e-06)
(0 -0 -1.380394648e-06)
(0 -0 -1.469617568e-06)
(0 -0 -1.555745417e-06)
(0 -0 -1.638429203e-06)
(0 -0 -1.717324662e-06)
(0 -0 -1.792090823e-06)
(0 -0 -1.862385916e-06)
(0 -0 -1.9278615e-06)
(0 -0 -1.988157443e-06)
(0 -0 -2.042902014e-06)
(0 -0 -7.985367464e-07)
(0 -0 -4.849491307e-07)
(0 -0 -4.37616374e-07)
(0 -0 -3.975008265e-07)
(0 -0 -3.646022599e-07)
(0 -0 -3.390657291e-07)
(0 -0 -3.210347613e-07)
(0 -0 -3.106643049e-07)
(0 -0 -3.080614982e-07)
(0 -0 -3.128394024e-07)
(0 -0 -3.249751992e-07)
(0 -0 -3.444346069e-07)
(0 -0 -3.711005877e-07)
(0 -0 -4.048007823e-07)
(0 -0 -4.45309836e-07)
(0 -0 -4.923517094e-07)
(0 -0 -5.456092744e-07)
(0 -0 -6.047343573e-07)
(0 -0 -6.693562944e-07)
(0 -0 -7.390881849e-07)
(0 -0 -8.135310804e-07)
(0 -0 -8.922768907e-07)
(0 -0 -9.749107728e-07)
(0 -0 -1.061013514e-06)
(0 -0 -1.150164153e-06)
(0 -0 -1.241942762e-06)
(0 -0 -1.335933177e-06)
(0 -0 -1.431725396e-06)
(0 -0 -1.528917467e-06)
(0 -0 -1.627116694e-06)
(0 -0 -1.72594008e-06)
(0 -0 -1.825014021e-06)
(0 -0 -1.923973342e-06)
(0 -0 -2.0224598e-06)
(0 -0 -2.120120122e-06)
(0 -0 -2.216603658e-06)
(0 -0 -2.311559966e-06)
(0 -0 -2.404636958e-06)
(0 -0 -2.495480258e-06)
(0 -0 -2.583734139e-06)
(0 -0 -2.669044112e-06)
(0 -0 -2.751061133e-06)
(0 -0 -2.829447011e-06)
(0 -0 -2.903879751e-06)
(0 -0 -2.974056621e-06)
(0 -0 -3.039692226e-06)
(0 -0 -3.100509633e-06)
(0 -0 -3.156225161e-06)
(0 -0 -3.206531079e-06)
(0 -0 -3.251084181e-06)
(0 -0 -2.439139212e-06)
(0 -0 -1.61076679e-06)
(0 -0 -1.561250369e-06)
(0 -0 -1.519077516e-06)
(0 -0 -1.484440579e-06)
(0 -0 -1.457519373e-06)
(0 -0 -1.438390668e-06)
(0 -0 -1.427050818e-06)
(0 -0 -1.423474246e-06)
(0 -0 -1.427622533e-06)
(0 -0 -1.43944566e-06)
(0 -0 -1.458864131e-06)
(0 -0 -1.485751292e-06)
(0 -0 -1.51992292e-06)
(0 -0 -1.561134197e-06)
(0 -0 -1.609083524e-06)
(0 -0 -1.663420884e-06)
(0 -0 -1.723757762e-06)
(0 -0 -1.789676343e-06)
(0 -0 -1.860737108e-06)
(0 -0 -1.936484849e-06)
(0 -0 -2.016453563e-06)
(0 -0 -2.100170755e-06)
(0 -0 -2.187161453e-06)
(0 -0 -2.276951975e-06)
(0 -0 -2.369073376e-06)
(0 -0 -2.463064452e-06)
(0 -0 -2.558474214e-06)
(0 -0 -2.65486373e-06)
(0 -0 -2.75180725e-06)
(0 -0 -2.848892531e-06)
(0 -0 -2.945720378e-06)
(0 -0 -3.041903424e-06)
(0 -0 -3.137064196e-06)
(0 -0 -3.230832484e-06)
(0 -0 -3.32284218e-06)
(0 -0 -3.41272803e-06)
(0 -0 -3.50012311e-06)
(0 -0 -3.584657942e-06)
(0 -0 -3.665962064e-06)
(0 -0 -3.743668653e-06)
(0 -0 -3.817422699e-06)
(0 -0 -3.886892427e-06)
(0 -0 -3.951781872e-06)
(0 -0 -4.011840315e-06)
(0 -0 -4.066862935e-06)
(0 -0 -4.116677148e-06)
(0 -0 -4.161112144e-06)
(0 -0 -4.199955631e-06)
(0 -0 -4.232912281e-06)
(0 -0 -3.833734864e-06)
(0 -0 -2.564152857e-06)
(0 -0 -2.510536278e-06)
(0 -0 -2.46477981e-06)
(0 -0 -2.427059099e-06)
(0 -0 -2.39752912e-06)
(0 -0 -2.376238564e-06)
(0 -0 -2.363152773e-06)
(0 -0 -2.358213099e-06)
(0 -0 -2.361359471e-06)
(0 -0 -2.372519882e-06)
(0 -0 -2.391590223e-06)
(0 -0 -2.418416951e-06)
(0 -0 -2.452786127e-06)
(0 -0 -2.494420098e-06)
(0 -0 -2.542981275e-06)
(0 -0 -2.598080528e-06)
(0 -0 -2.659287127e-06)
(0 -0 -2.726138021e-06)
(0 -0 -2.798145639e-06)
(0 -0 -2.874804357e-06)
(0 -0 -2.955596112e-06)
(0 -0 -3.039995566e-06)
(0 -0 -3.12747495e-06)
(0 -0 -3.217508592e-06)
(0 -0 -3.309577035e-06)
(0 -0 -3.403170676e-06)
(0 -0 -3.497792796e-06)
(0 -0 -3.592961845e-06)
(0 -0 -3.688212894e-06)
(0 -0 -3.783098215e-06)
(0 -0 -3.877186989e-06)
(0 -0 -3.970064003e-06)
(0 -0 -4.061327188e-06)
(0 -0 -4.15058399e-06)
(0 -0 -4.237446915e-06)
(0 -0 -4.321528852e-06)
(0 -0 -4.402439e-06)
(0 -0 -4.479780605e-06)
(0 -0 -4.553152174e-06)
(0 -0 -4.622154122e-06)
(0 -0 -4.686402629e-06)
(0 -0 -4.745551225e-06)
(0 -0 -4.799317658e-06)
(0 -0 -4.847509511e-06)
(0 -0 -4.89003745e-06)
(0 -0 -4.926901383e-06)
(0 -0 -4.958136222e-06)
(0 -0 -4.983715322e-06)
(0 -0 -5.003433228e-06)
(0 -0 -4.978118445e-06)
(0 -0 -3.346313569e-06)
(0 -0 -3.289093074e-06)
(0 -0 -3.240101497e-06)
(0 -0 -3.199522291e-06)
(0 -0 -3.167510747e-06)
(0 -0 -3.144111042e-06)
(0 -0 -3.129280439e-06)
(0 -0 -3.122948697e-06)
(0 -0 -3.125041356e-06)
(0 -0 -3.135469261e-06)
(0 -0 -3.154107735e-06)
(0 -0 -3.180778419e-06)
(0 -0 -3.215237934e-06)
(0 -0 -3.25717473e-06)
(0 -0 -3.306213426e-06)
(0 -0 -3.361923875e-06)
(0 -0 -3.423831682e-06)
(0 -0 -3.491427904e-06)
(0 -0 -3.564177174e-06)
(0 -0 -3.641524461e-06)
(0 -0 -3.722901002e-06)
(0 -0 -3.807729787e-06)
(0 -0 -3.895430761e-06)
(0 -0 -3.9854258e-06)
(0 -0 -4.07714342e-06)
(0 -0 -4.170023093e-06)
(0 -0 -4.26351896e-06)
(0 -0 -4.357102734e-06)
(0 -0 -4.450265738e-06)
(0 -0 -4.542520065e-06)
(0 -0 -4.633398727e-06)
(0 -0 -4.722454422e-06)
(0 -0 -4.809256557e-06)
(0 -0 -4.893386465e-06)
(0 -0 -4.974431177e-06)
(0 -0 -5.051976235e-06)
(0 -0 -5.125598294e-06)
(0 -0 -5.194859108e-06)
(0 -0 -5.259303935e-06)
(0 -0 -5.318468552e-06)
(0 -0 -5.37189925e-06)
(0 -0 -5.419189085e-06)
(0 -0 -5.460030276e-06)
(0 -0 -5.494275378e-06)
(0 -0 -5.521987824e-06)
(0 -0 -5.543447929e-06)
(0 -0 -5.559071435e-06)
(0 -0 -5.569205968e-06)
(0 -0 -5.573806544e-06)
(0 -0 -5.886504359e-06)
(0 -0 -3.966458254e-06)
(0 -0 -3.905821685e-06)
(0 -0 -3.853761964e-06)
(0 -0 -3.810465923e-06)
(0 -0 -3.776088715e-06)
(0 -0 -3.750671314e-06)
(0 -0 -3.734164832e-06)
(0 -0 -3.726489562e-06)
(0 -0 -3.727558638e-06)
(0 -0 -3.737267714e-06)
(0 -0 -3.755473616e-06)
(0 -0 -3.781975252e-06)
(0 -0 -3.816501729e-06)
(0 -0 -3.858709189e-06)
(0 -0 -3.908185548e-06)
(0 -0 -3.964460153e-06)
(0 -0 -4.027014876e-06)
(0 -0 -4.095294318e-06)
(0 -0 -4.168714365e-06)
(0 -0 -4.246669319e-06)
(0 -0 -4.328538111e-06)
(0 -0 -4.413690053e-06)
(0 -0 -4.501490374e-06)
(0 -0 -4.591305675e-06)
(0 -0 -4.682509227e-06)
(0 -0 -4.774485919e-06)
(0 -0 -4.866636607e-06)
(0 -0 -4.958381755e-06)
(0 -0 -5.049164331e-06)
(0 -0 -5.138451814e-06)
(0 -0 -5.225737001e-06)
(0 -0 -5.310537055e-06)
(0 -0 -5.392390311e-06)
(0 -0 -5.470850521e-06)
(0 -0 -5.545478416e-06)
(0 -0 -5.615830545e-06)
(0 -0 -5.681445898e-06)
(0 -0 -5.741832199e-06)
(0 -0 -5.796456183e-06)
(0 -0 -5.844744815e-06)
(0 -0 -5.886106758e-06)
(0 -0 -5.919984959e-06)
(0 -0 -5.945949106e-06)
(0 -0 -5.963825969e-06)
(0 -0 -5.973841433e-06)
(0 -0 -5.976708402e-06)
(0 -0 -5.973540115e-06)
(0 -0 -5.9654137e-06)
(0 -0 -5.952394423e-06)
(0 -0 -6.570144552e-06)
(0 -0 -4.43234965e-06)
(0 -0 -4.368500628e-06)
(0 -0 -4.313557323e-06)
(0 -0 -4.26771021e-06)