/*--------------------------------*- C++ -*----------------------------------*\
| =========                 |                                                 |
| \\      /  F ield         | foam-extend: Open Source CFD                    |
|  \\    /   O peration     | Version:     4.1                                |
|   \\  /    A nd           | Web:         http://www.foam-extend.org         |
|    \\/     M anipulation  |                                                 |
\*---------------------------------------------------------------------------*/
FoamFile
{
    version     2.0;
    format      ascii;
    class       regIOobject;
    location    "30000/uniform";
    object      profilingInfo;
}
// * * * * * * * * * * * * * * * * * * * * * * * * * * * * * * * * * * * * * //

profilingInfo
(

    {
        id              13;
        parentId        11;
        description     "Foam::Time::writeObject - outputTime";
        calls           3;
        totalTime       0.783708;
        childTime       0;
        onStack         1;
    }

    {
        id              11;
        parentId        1;
        description     "Foam::Time::writeObject";
        calls           3000;
        totalTime       0.795207;
        childTime       0.783708;
        onStack         1;
    }

    {
        id              1;
        description     "application::main";
        calls           1;
        totalTime       214.288794;
        childTime       178.078563;
        onStack         1;
    }

    {
        id              12;
        parentId        1;
        description     "FO::FFT_probes::execute";
        calls           2999;
        totalTime       0.421957;
        childTime       0;
        onStack         0;
    }

    {
        id              3;
        parentId        2;
        description     "FO::FFT_probes::start";
        calls           1;
        totalTime       3.096156;
        childTime       0;
        onStack         0;
    }

    {
        id              2;
        parentId        1;
        description     "functionObjectList::read";
        calls           1;
        totalTime       3.249794;
        childTime       3.096156;
        onStack         0;
    }

    {
        id              9;
        parentId        1;
        description     "fvMatrix::solve_T";
        calls           3000;
        totalTime       2.306224;
        childTime       1.245913;
        onStack         0;
    }

    {
        id              4;
        parentId        1;
        description     "fvMatrix::solve_U";
        calls           3000;
        totalTime       11.998642;
        childTime       9.376895;
        onStack         0;
    }

    {
        id              7;
        parentId        1;
        description     "fvMatrix::solve_p";
        calls           6000;
        totalTime       159.306739;
        childTime       156.774292;
        onStack         0;
    }

    {
        id              10;
        parentId        9;
        description     "lduMatrix::solver_T";
        calls           3000;
        totalTime       1.245913;
        childTime       0;
        onStack         0;
    }

    {
        id              5;
        parentId        4;
        description     "lduMatrix::solver_Ux";
        calls           3000;
        totalTime       4.448423;
        childTime       0;
        onStack         0;
    }

    {
        id              6;
        parentId        4;
        description     "lduMatrix::solver_Uy";
        calls           3000;
        totalTime       4.928472;
        childTime       0;
        onStack         0;
    }

    {
        id              8;
        parentId        7;
        description     "lduMatrix::solver_p";
        calls           6000;
        totalTime       156.774292;
        childTime       0;
        onStack         0;
    }
);


// ************************************************************************* //
