0 0 	0 	0 	
0.020202 0.117003 	3.44943e-07 	3.13639e-09 	
0.040404 0.234006 	6.89895e-07 	6.25467e-09 	
0.0606061 0.339144 	1.75891e-06 	1.68277e-08 	
0.0808081 0.433547 	3.48303e-06 	3.41372e-08 	
0.10101 0.526984 	5.2011e-06 	5.17047e-08 	
0.121212 0.602077 	6.80439e-06 	7.42723e-08 	
0.141414 0.67717 	8.40767e-06 	9.684e-08 	
0.161616 0.742946 	1.00217e-05 	1.17186e-07 	
0.181818 0.801835 	1.16438e-05 	1.35901e-07 	
0.20202 0.859389 	1.32479e-05 	1.54074e-07 	
0.222222 0.904922 	1.46906e-05 	1.67447e-07 	
0.242424 0.950455 	1.61333e-05 	1.8082e-07 	
0.262626 0.989231 	1.73489e-05 	1.90284e-07 	
0.282828 1.02395 	1.84283e-05 	1.97414e-07 	
0.30303 1.05738 	1.94421e-05 	2.03725e-07 	
0.323232 1.0835 	2.00849e-05 	2.05431e-07 	
0.343434 1.10962 	2.07277e-05 	2.07138e-07 	
0.363636 1.1312 	2.10736e-05 	2.06193e-07 	
0.383838 1.15059 	2.12767e-05 	2.03978e-07 	
0.40404 1.16895 	2.14007e-05 	2.01116e-07 	
0.424242 1.18316 	2.12084e-05 	1.95667e-07 	
0.444444 1.19738 	2.1016e-05 	1.90219e-07 	
0.464646 1.20875 	2.05921e-05 	1.83472e-07 	
0.484848 1.21905 	2.00803e-05 	1.76226e-07 	
0.505051 1.22861 	1.95107e-05 	1.6882e-07 	
0.525253 1.23597 	1.87676e-05 	1.60905e-07 	
0.545455 1.24334 	1.80245e-05 	1.52989e-07 	
0.565657 1.24904 	1.71711e-05 	1.45181e-07 	
0.585859 1.25426 	1.62856e-05 	1.37394e-07 	
0.606061 1.25901 	1.53815e-05 	1.29711e-07 	
0.626263 1.26266 	1.4434e-05 	1.2225e-07 	
0.646465 1.26631 	1.34865e-05 	1.1479e-07 	
0.666667 1.26903 	1.25398e-05 	1.0724e-07 	
0.686869 1.27155 	1.15931e-05 	9.96654e-08 	
0.707071 1.2738 	1.06619e-05 	9.19062e-08 	
0.727273 1.27552 	9.75943e-06 	8.37945e-08 	
0.747475 1.27725 	8.8569e-06 	7.56827e-08 	
0.767677 1.27848 	8.01461e-06 	6.71306e-08 	
0.787879 1.27964 	7.18091e-06 	5.85112e-08 	
0.808081 1.28064 	6.37808e-06 	4.97535e-08 	
0.828283 1.28141 	5.62154e-06 	4.07755e-08 	
0.848485 1.28217 	4.865e-06 	3.17976e-08 	
0.868687 1.28266 	4.17405e-06 	2.30247e-08 	
0.888889 1.28314 	3.48842e-06 	1.42623e-08 	
0.909091 1.28351 	2.82661e-06 	5.98755e-09 	
0.929293 1.28377 	2.1939e-06 	-1.70341e-09 	
0.949495 1.28402 	1.56119e-06 	-9.39437e-09 	
0.969697 1.28411 	9.55285e-07 	-1.55233e-08 	
0.989899 1.28419 	3.50064e-07 	-2.16186e-08 	
1.0101 1.28419 	-2.55639e-07 	-2.7309e-08 	
1.0303 1.28411 	-8.61825e-07 	-3.26084e-08 	
1.05051 1.28402 	-1.46873e-06 	-3.79172e-08 	
1.07071 1.28377 	-2.10369e-06 	-4.39079e-08 	
1.09091 1.28351 	-2.73864e-06 	-4.98986e-08 	
1.11111 1.28314 	-3.40258e-06 	-5.66195e-08 	
1.13131 1.28266 	-4.09023e-06 	-6.39565e-08 	
1.15152 1.28217 	-4.78309e-06 	-7.13702e-08 	
1.17172 1.28141 	-5.54034e-06 	-7.98898e-08 	
1.19192 1.28064 	-6.29758e-06 	-8.84093e-08 	
1.21212 1.27964 	-7.10068e-06 	-9.68568e-08 	
1.23232 1.27848 	-7.93436e-06 	-1.05278e-07 	
1.25253 1.27725 	-8.77671e-06 	-1.13508e-07 	
1.27273 1.27552 	-9.67985e-06 	-1.20502e-07 	
1.29293 1.2738 	-1.0583e-05 	-1.27496e-07 	
1.31313 1.27155 	-1.15151e-05 	-1.33433e-07 	
1.33333 1.26903 	-1.24628e-05 	-1.3882e-07 	
1.35354 1.26631 	-1.34106e-05 	-1.43931e-07 	
1.37374 1.26266 	-1.43588e-05 	-1.47805e-07 	
1.39394 1.25901 	-1.53071e-05 	-1.51679e-07 	
1.41414 1.25426 	-1.62123e-05 	-1.54343e-07 	
1.43434 1.24904 	-1.70992e-05 	-1.56503e-07 	
1.45455 1.24334 	-1.79543e-05 	-1.58304e-07 	
1.47475 1.23597 	-1.87002e-05 	-1.58907e-07 	
1.49495 1.22861 	-1.9446e-05 	-1.59509e-07 	
1.51515 1.21905 	-2.0018e-05 	-1.59219e-07 	
1.53535 1.20875 	-2.05321e-05 	-1.58639e-07 	
1.55556 1.19738 	-2.0958e-05 	-1.57774e-07 	
1.57576 1.18316 	-2.11512e-05 	-1.56164e-07 	
1.59596 1.16895 	-2.13444e-05 	-1.54555e-07 	
1.61616 1.15059 	-2.12214e-05 	-1.52401e-07 	
1.63636 1.1312 	-2.10195e-05 	-1.5011e-07 	
1.65657 1.10962 	-2.06749e-05 	-1.47617e-07 	
1.67677 1.0835 	-2.0034e-05 	-1.44687e-07 	
1.69697 1.05738 	-1.93931e-05 	-1.41757e-07 	
1.71717 1.02395 	-1.83821e-05 	-1.38342e-07 	
1.73737 0.989231 	-1.73059e-05 	-1.34824e-07 	
1.75758 0.950455 	-1.60938e-05 	-1.30848e-07 	
1.77778 0.904922 	-1.46553e-05 	-1.26049e-07 	
1.79798 0.859389 	-1.32168e-05 	-1.2125e-07 	
1.81818 0.801835 	-1.16168e-05 	-1.15038e-07 	
1.83838 0.742946 	-9.99882e-06 	-1.08637e-07 	
1.85859 0.67717 	-8.38887e-06 	-1.02189e-07 	
1.87879 0.602077 	-6.78977e-06 	-9.55967e-08 	
1.89899 0.526984 	-5.19066e-06 	-8.90048e-08 	
1.91919 0.433547 	-3.47458e-06 	-7.86677e-08 	
1.93939 0.339144 	-1.75235e-06 	-6.81021e-08 	
1.9596 0.234006 	-6.854e-07 	-5.05699e-08 	
1.9798 0.117003 	-3.427e-07 	-2.52849e-08 	
2 1.26747e-15 	-4.14807e-21 	-8.46529e-23 	
