/*--------------------------------*- C++ -*----------------------------------*\
| =========                 |                                                 |
| \\      /  F ield         | foam-extend: Open Source CFD                    |
|  \\    /   O peration     | Version:     4.1                                |
|   \\  /    A nd           | Web:         http://www.foam-extend.org         |
|    \\/     M anipulation  |                                                 |
\*---------------------------------------------------------------------------*/
FoamFile
{
    version     2.0;
    format      ascii;
    class       regIOobject;
    location    "200000/uniform";
    object      profilingInfo;
}
// * * * * * * * * * * * * * * * * * * * * * * * * * * * * * * * * * * * * * //

profilingInfo
(

    {
        id              13;
        parentId        11;
        description     "Foam::Time::writeObject - outputTime";
        calls           20;
        totalTime       5.093734;
        childTime       0;
        onStack         1;
    }

    {
        id              11;
        parentId        1;
        description     "Foam::Time::writeObject";
        calls           20000;
        totalTime       5.170504;
        childTime       5.093734;
        onStack         1;
    }

    {
        id              1;
        description     "application::main";
        calls           1;
        totalTime       1271.184485;
        childTime       1029.139729;
        onStack         1;
    }

    {
        id              12;
        parentId        1;
        description     "FO::FFT_probes::execute";
        calls           19999;
        totalTime       4.052754;
        childTime       0;
        onStack         0;
    }

    {
        id              3;
        parentId        2;
        description     "FO::FFT_probes::start";
        calls           1;
        totalTime       3.096156;
        childTime       0;
        onStack         0;
    }

    {
        id              2;
        parentId        1;
        description     "functionObjectList::read";
        calls           1;
        totalTime       3.249794;
        childTime       3.096156;
        onStack         0;
    }

    {
        id              9;
        parentId        1;
        description     "fvMatrix::solve_T";
        calls           20000;
        totalTime       15.690696;
        childTime       8.547413;
        onStack         0;
    }

    {
        id              4;
        parentId        1;
        description     "fvMatrix::solve_U";
        calls           20000;
        totalTime       83.129701;
        childTime       65.390965;
        onStack         0;
    }

    {
        id              7;
        parentId        1;
        description     "fvMatrix::solve_p";
        calls           40000;
        totalTime       917.84628;
        childTime       901.266307;
        onStack         0;
    }

    {
        id              10;
        parentId        9;
        description     "lduMatrix::solver_T";
        calls           20000;
        totalTime       8.547413;
        childTime       0;
        onStack         0;
    }

    {
        id              5;
        parentId        4;
        description     "lduMatrix::solver_Ux";
        calls           20000;
        totalTime       31.922329;
        childTime       0;
        onStack         0;
    }

    {
        id              6;
        parentId        4;
        description     "lduMatrix::solver_Uy";
        calls           20000;
        totalTime       33.468636;
        childTime       0;
        onStack         0;
    }

    {
        id              8;
        parentId        7;
        description     "lduMatrix::solver_p";
        calls           40000;
        totalTime       901.266307;
        childTime       0;
        onStack         0;
    }
);


// ************************************************************************* //
