# Probe 0 (1.24 1 1)
# Probe 1 (1.34 1 1)
# Probe 2 (1.44 1 1)
#           Probe                 0                 1                 2
#            Time
            0.005                 (-1e+300 -1e+300 -1e+300)                 (-1e+300 -1e+300 -1e+300)                 (-1e+300 -1e+300 -1e+300)
             0.01                 (-1e+300 -1e+300 -1e+300)                 (-1e+300 -1e+300 -1e+300)                 (-1e+300 -1e+300 -1e+300)
            0.015                 (-1e+300 -1e+300 -1e+300)                 (-1e+300 -1e+300 -1e+300)                 (-1e+300 -1e+300 -1e+300)
             0.02                 (-1e+300 -1e+300 -1e+300)                 (-1e+300 -1e+300 -1e+300)                 (-1e+300 -1e+300 -1e+300)
            0.025                 (-1e+300 -1e+300 -1e+300)                 (-1e+300 -1e+300 -1e+300)                 (-1e+300 -1e+300 -1e+300)
             0.03                 (-1e+300 -1e+300 -1e+300)                 (-1e+300 -1e+300 -1e+300)                 (-1e+300 -1e+300 -1e+300)
            0.035                 (-1e+300 -1e+300 -1e+300)                 (-1e+300 -1e+300 -1e+300)                 (-1e+300 -1e+300 -1e+300)
             0.04                 (-1e+300 -1e+300 -1e+300)                 (-1e+300 -1e+300 -1e+300)                 (-1e+300 -1e+300 -1e+300)
            0.045                 (-1e+300 -1e+300 -1e+300)                 (-1e+300 -1e+300 -1e+300)                 (-1e+300 -1e+300 -1e+300)
             0.05                 (-1e+300 -1e+300 -1e+300)                 (-1e+300 -1e+300 -1e+300)                 (-1e+300 -1e+300 -1e+300)
            0.055                 (-1e+300 -1e+300 -1e+300)                 (-1e+300 -1e+300 -1e+300)                 (-1e+300 -1e+300 -1e+300)
             0.06                 (-1e+300 -1e+300 -1e+300)                 (-1e+300 -1e+300 -1e+300)                 (-1e+300 -1e+300 -1e+300)
            0.065                 (-1e+300 -1e+300 -1e+300)                 (-1e+300 -1e+300 -1e+300)                 (-1e+300 -1e+300 -1e+300)
             0.07                 (-1e+300 -1e+300 -1e+300)                 (-1e+300 -1e+300 -1e+300)                 (-1e+300 -1e+300 -1e+300)
            0.075                 (-1e+300 -1e+300 -1e+300)                 (-1e+300 -1e+300 -1e+300)                 (-1e+300 -1e+300 -1e+300)
             0.08                 (-1e+300 -1e+300 -1e+300)                 (-1e+300 -1e+300 -1e+300)                 (-1e+300 -1e+300 -1e+300)
            0.085                 (-1e+300 -1e+300 -1e+300)                 (-1e+300 -1e+300 -1e+300)                 (-1e+300 -1e+300 -1e+300)
             0.09                 (-1e+300 -1e+300 -1e+300)                 (-1e+300 -1e+300 -1e+300)                 (-1e+300 -1e+300 -1e+300)
            0.095                 (-1e+300 -1e+300 -1e+300)                 (-1e+300 -1e+300 -1e+300)                 (-1e+300 -1e+300 -1e+300)
              0.1                 (-1e+300 -1e+300 -1e+300)                 (-1e+300 -1e+300 -1e+300)                 (-1e+300 -1e+300 -1e+300)
            0.105                 (-1e+300 -1e+300 -1e+300)                 (-1e+300 -1e+300 -1e+300)                 (-1e+300 -1e+300 -1e+300)
             0.11                 (-1e+300 -1e+300 -1e+300)                 (-1e+300 -1e+300 -1e+300)                 (-1e+300 -1e+300 -1e+300)
            0.115                 (-1e+300 -1e+300 -1e+300)                 (-1e+300 -1e+300 -1e+300)                 (-1e+300 -1e+300 -1e+300)
             0.12                 (-1e+300 -1e+300 -1e+300)                 (-1e+300 -1e+300 -1e+300)                 (-1e+300 -1e+300 -1e+300)
            0.125                 (-1e+300 -1e+300 -1e+300)                 (-1e+300 -1e+300 -1e+300)                 (-1e+300 -1e+300 -1e+300)
             0.13                 (-1e+300 -1e+300 -1e+300)                 (-1e+300 -1e+300 -1e+300)                 (-1e+300 -1e+300 -1e+300)
            0.135                 (-1e+300 -1e+300 -1e+300)                 (-1e+300 -1e+300 -1e+300)                 (-1e+300 -1e+300 -1e+300)
             0.14                 (-1e+300 -1e+300 -1e+300)                 (-1e+300 -1e+300 -1e+300)                 (-1e+300 -1e+300 -1e+300)
            0.145                 (-1e+300 -1e+300 -1e+300)                 (-1e+300 -1e+300 -1e+300)                 (-1e+300 -1e+300 -1e+300)
             0.15                 (-1e+300 -1e+300 -1e+300)                 (-1e+300 -1e+300 -1e+300)                 (-1e+300 -1e+300 -1e+300)
            0.155                 (-1e+300 -1e+300 -1e+300)                 (-1e+300 -1e+300 -1e+300)                 (-1e+300 -1e+300 -1e+300)
             0.16                 (-1e+300 -1e+300 -1e+300)                 (-1e+300 -1e+300 -1e+300)                 (-1e+300 -1e+300 -1e+300)
            0.165                 (-1e+300 -1e+300 -1e+300)                 (-1e+300 -1e+300 -1e+300)                 (-1e+300 -1e+300 -1e+300)
             0.17                 (-1e+300 -1e+300 -1e+300)                 (-1e+300 -1e+300 -1e+300)                 (-1e+300 -1e+300 -1e+300)
            0.175                 (-1e+300 -1e+300 -1e+300)                 (-1e+300 -1e+300 -1e+300)                 (-1e+300 -1e+300 -1e+300)
             0.18                 (-1e+300 -1e+300 -1e+300)                 (-1e+300 -1e+300 -1e+300)                 (-1e+300 -1e+300 -1e+300)
            0.185                 (-1e+300 -1e+300 -1e+300)                 (-1e+300 -1e+300 -1e+300)                 (-1e+300 -1e+300 -1e+300)
             0.19                 (-1e+300 -1e+300 -1e+300)                 (-1e+300 -1e+300 -1e+300)                 (-1e+300 -1e+300 -1e+300)
            0.195                 (-1e+300 -1e+300 -1e+300)                 (-1e+300 -1e+300 -1e+300)                 (-1e+300 -1e+300 -1e+300)
              0.2                 (-1e+300 -1e+300 -1e+300)                 (-1e+300 -1e+300 -1e+300)                 (-1e+300 -1e+300 -1e+300)
            0.205                 (-1e+300 -1e+300 -1e+300)                 (-1e+300 -1e+300 -1e+300)                 (-1e+300 -1e+300 -1e+300)
             0.21                 (-1e+300 -1e+300 -1e+300)                 (-1e+300 -1e+300 -1e+300)                 (-1e+300 -1e+300 -1e+300)
            0.215                 (-1e+300 -1e+300 -1e+300)                 (-1e+300 -1e+300 -1e+300)                 (-1e+300 -1e+300 -1e+300)
             0.22                 (-1e+300 -1e+300 -1e+300)                 (-1e+300 -1e+300 -1e+300)                 (-1e+300 -1e+300 -1e+300)
            0.225                 (-1e+300 -1e+300 -1e+300)                 (-1e+300 -1e+300 -1e+300)                 (-1e+300 -1e+300 -1e+300)
             0.23                 (-1e+300 -1e+300 -1e+300)                 (-1e+300 -1e+300 -1e+300)                 (-1e+300 -1e+300 -1e+300)
            0.235                 (-1e+300 -1e+300 -1e+300)                 (-1e+300 -1e+300 -1e+300)                 (-1e+300 -1e+300 -1e+300)
             0.24                 (-1e+300 -1e+300 -1e+300)                 (-1e+300 -1e+300 -1e+300)                 (-1e+300 -1e+300 -1e+300)
            0.245                 (-1e+300 -1e+300 -1e+300)                 (-1e+300 -1e+300 -1e+300)                 (-1e+300 -1e+300 -1e+300)
             0.25                 (-1e+300 -1e+300 -1e+300)                 (-1e+300 -1e+300 -1e+300)                 (-1e+300 -1e+300 -1e+300)
            0.255                 (-1e+300 -1e+300 -1e+300)                 (-1e+300 -1e+300 -1e+300)                 (-1e+300 -1e+300 -1e+300)
             0.26                 (-1e+300 -1e+300 -1e+300)                 (-1e+300 -1e+300 -1e+300)                 (-1e+300 -1e+300 -1e+300)
            0.265                 (-1e+300 -1e+300 -1e+300)                 (-1e+300 -1e+300 -1e+300)                 (-1e+300 -1e+300 -1e+300)
             0.27                 (-1e+300 -1e+300 -1e+300)                 (-1e+300 -1e+300 -1e+300)                 (-1e+300 -1e+300 -1e+300)
            0.275                 (-1e+300 -1e+300 -1e+300)                 (-1e+300 -1e+300 -1e+300)                 (-1e+300 -1e+300 -1e+300)
             0.28                 (-1e+300 -1e+300 -1e+300)                 (-1e+300 -1e+300 -1e+300)                 (-1e+300 -1e+300 -1e+300)
            0.285                 (-1e+300 -1e+300 -1e+300)                 (-1e+300 -1e+300 -1e+300)                 (-1e+300 -1e+300 -1e+300)
             0.29                 (-1e+300 -1e+300 -1e+300)                 (-1e+300 -1e+300 -1e+300)                 (-1e+300 -1e+300 -1e+300)
            0.295                 (-1e+300 -1e+300 -1e+300)                 (-1e+300 -1e+300 -1e+300)                 (-1e+300 -1e+300 -1e+300)
              0.3                 (-1e+300 -1e+300 -1e+300)                 (-1e+300 -1e+300 -1e+300)                 (-1e+300 -1e+300 -1e+300)
            0.305                 (-1e+300 -1e+300 -1e+300)                 (-1e+300 -1e+300 -1e+300)                 (-1e+300 -1e+300 -1e+300)
             0.31                 (-1e+300 -1e+300 -1e+300)                 (-1e+300 -1e+300 -1e+300)                 (-1e+300 -1e+300 -1e+300)
            0.315                 (-1e+300 -1e+300 -1e+300)                 (-1e+300 -1e+300 -1e+300)                 (-1e+300 -1e+300 -1e+300)
             0.32                 (-1e+300 -1e+300 -1e+300)                 (-1e+300 -1e+300 -1e+300)                 (-1e+300 -1e+300 -1e+300)
            0.325                 (-1e+300 -1e+300 -1e+300)                 (-1e+300 -1e+300 -1e+300)                 (-1e+300 -1e+300 -1e+300)
             0.33                 (-1e+300 -1e+300 -1e+300)                 (-1e+300 -1e+300 -1e+300)                 (-1e+300 -1e+300 -1e+300)
            0.335                 (-1e+300 -1e+300 -1e+300)                 (-1e+300 -1e+300 -1e+300)                 (-1e+300 -1e+300 -1e+300)
             0.34                 (-1e+300 -1e+300 -1e+300)                 (-1e+300 -1e+300 -1e+300)                 (-1e+300 -1e+300 -1e+300)
            0.345                 (-1e+300 -1e+300 -1e+300)                 (-1e+300 -1e+300 -1e+300)                 (-1e+300 -1e+300 -1e+300)
             0.35                 (-1e+300 -1e+300 -1e+300)                 (-1e+300 -1e+300 -1e+300)                 (-1e+300 -1e+300 -1e+300)
            0.355                 (-1e+300 -1e+300 -1e+300)                 (-1e+300 -1e+300 -1e+300)                 (-1e+300 -1e+300 -1e+300)
             0.36                 (-1e+300 -1e+300 -1e+300)                 (-1e+300 -1e+300 -1e+300)                 (-1e+300 -1e+300 -1e+300)
            0.365                 (-1e+300 -1e+300 -1e+300)                 (-1e+300 -1e+300 -1e+300)                 (-1e+300 -1e+300 -1e+300)
             0.37                 (-1e+300 -1e+300 -1e+300)                 (-1e+300 -1e+300 -1e+300)                 (-1e+300 -1e+300 -1e+300)
            0.375                 (-1e+300 -1e+300 -1e+300)                 (-1e+300 -1e+300 -1e+300)                 (-1e+300 -1e+300 -1e+300)
             0.38                 (-1e+300 -1e+300 -1e+300)                 (-1e+300 -1e+300 -1e+300)                 (-1e+300 -1e+300 -1e+300)
            0.385                 (-1e+300 -1e+300 -1e+300)                 (-1e+300 -1e+300 -1e+300)                 (-1e+300 -1e+300 -1e+300)
             0.39                 (-1e+300 -1e+300 -1e+300)                 (-1e+300 -1e+300 -1e+300)                 (-1e+300 -1e+300 -1e+300)
            0.395                 (-1e+300 -1e+300 -1e+300)                 (-1e+300 -1e+300 -1e+300)                 (-1e+300 -1e+300 -1e+300)
              0.4                 (-1e+300 -1e+300 -1e+300)                 (-1e+300 -1e+300 -1e+300)                 (-1e+300 -1e+300 -1e+300)
            0.405                 (-1e+300 -1e+300 -1e+300)                 (-1e+300 -1e+300 -1e+300)                 (-1e+300 -1e+300 -1e+300)
             0.41                 (-1e+300 -1e+300 -1e+300)                 (-1e+300 -1e+300 -1e+300)                 (-1e+300 -1e+300 -1e+300)
            0.415                 (-1e+300 -1e+300 -1e+300)                 (-1e+300 -1e+300 -1e+300)                 (-1e+300 -1e+300 -1e+300)
             0.42                 (-1e+300 -1e+300 -1e+300)                 (-1e+300 -1e+300 -1e+300)                 (-1e+300 -1e+300 -1e+300)
            0.425                 (-1e+300 -1e+300 -1e+300)                 (-1e+300 -1e+300 -1e+300)                 (-1e+300 -1e+300 -1e+300)
             0.43                 (-1e+300 -1e+300 -1e+300)                 (-1e+300 -1e+300 -1e+300)                 (-1e+300 -1e+300 -1e+300)
            0.435                 (-1e+300 -1e+300 -1e+300)                 (-1e+300 -1e+300 -1e+300)                 (-1e+300 -1e+300 -1e+300)
             0.44                 (-1e+300 -1e+300 -1e+300)                 (-1e+300 -1e+300 -1e+300)                 (-1e+300 -1e+300 -1e+300)
            0.445                 (-1e+300 -1e+300 -1e+300)                 (-1e+300 -1e+300 -1e+300)                 (-1e+300 -1e+300 -1e+300)
             0.45                 (-1e+300 -1e+300 -1e+300)                 (-1e+300 -1e+300 -1e+300)                 (-1e+300 -1e+300 -1e+300)
            0.455                 (-1e+300 -1e+300 -1e+300)                 (-1e+300 -1e+300 -1e+300)                 (-1e+300 -1e+300 -1e+300)
             0.46                 (-1e+300 -1e+300 -1e+300)                 (-1e+300 -1e+300 -1e+300)                 (-1e+300 -1e+300 -1e+300)
            0.465                 (-1e+300 -1e+300 -1e+300)                 (-1e+300 -1e+300 -1e+300)                 (-1e+300 -1e+300 -1e+300)
             0.47                 (-1e+300 -1e+300 -1e+300)                 (-1e+300 -1e+300 -1e+300)                 (-1e+300 -1e+300 -1e+300)
            0.475                 (-1e+300 -1e+300 -1e+300)                 (-1e+300 -1e+300 -1e+300)                 (-1e+300 -1e+300 -1e+300)
             0.48                 (-1e+300 -1e+300 -1e+300)                 (-1e+300 -1e+300 -1e+300)                 (-1e+300 -1e+300 -1e+300)
            0.485                 (-1e+300 -1e+300 -1e+300)                 (-1e+300 -1e+300 -1e+300)                 (-1e+300 -1e+300 -1e+300)
             0.49                 (-1e+300 -1e+300 -1e+300)                 (-1e+300 -1e+300 -1e+300)                 (-1e+300 -1e+300 -1e+300)
            0.495                 (-1e+300 -1e+300 -1e+300)                 (-1e+300 -1e+300 -1e+300)                 (-1e+300 -1e+300 -1e+300)
              0.5                 (-1e+300 -1e+300 -1e+300)                 (-1e+300 -1e+300 -1e+300)                 (-1e+300 -1e+300 -1e+300)
            0.505                 (-1e+300 -1e+300 -1e+300)                 (-1e+300 -1e+300 -1e+300)                 (-1e+300 -1e+300 -1e+300)
             0.51                 (-1e+300 -1e+300 -1e+300)                 (-1e+300 -1e+300 -1e+300)                 (-1e+300 -1e+300 -1e+300)
            0.515                 (-1e+300 -1e+300 -1e+300)                 (-1e+300 -1e+300 -1e+300)                 (-1e+300 -1e+300 -1e+300)
             0.52                 (-1e+300 -1e+300 -1e+300)                 (-1e+300 -1e+300 -1e+300)                 (-1e+300 -1e+300 -1e+300)
            0.525                 (-1e+300 -1e+300 -1e+300)                 (-1e+300 -1e+300 -1e+300)                 (-1e+300 -1e+300 -1e+300)
             0.53                 (-1e+300 -1e+300 -1e+300)                 (-1e+300 -1e+300 -1e+300)                 (-1e+300 -1e+300 -1e+300)
            0.535                 (-1e+300 -1e+300 -1e+300)                 (-1e+300 -1e+300 -1e+300)                 (-1e+300 -1e+300 -1e+300)
             0.54                 (-1e+300 -1e+300 -1e+300)                 (-1e+300 -1e+300 -1e+300)                 (-1e+300 -1e+300 -1e+300)
            0.545                 (-1e+300 -1e+300 -1e+300)                 (-1e+300 -1e+300 -1e+300)                 (-1e+300 -1e+300 -1e+300)
             0.55                 (-1e+300 -1e+300 -1e+300)                 (-1e+300 -1e+300 -1e+300)                 (-1e+300 -1e+300 -1e+300)
            0.555                 (-1e+300 -1e+300 -1e+300)                 (-1e+300 -1e+300 -1e+300)                 (-1e+300 -1e+300 -1e+300)
             0.56                 (-1e+300 -1e+300 -1e+300)                 (-1e+300 -1e+300 -1e+300)                 (-1e+300 -1e+300 -1e+300)
            0.565                 (-1e+300 -1e+300 -1e+300)                 (-1e+300 -1e+300 -1e+300)                 (-1e+300 -1e+300 -1e+300)
             0.57                 (-1e+300 -1e+300 -1e+300)                 (-1e+300 -1e+300 -1e+300)                 (-1e+300 -1e+300 -1e+300)
            0.575                 (-1e+300 -1e+300 -1e+300)                 (-1e+300 -1e+300 -1e+300)                 (-1e+300 -1e+300 -1e+300)
             0.58                 (-1e+300 -1e+300 -1e+300)                 (-1e+300 -1e+300 -1e+300)                 (-1e+300 -1e+300 -1e+300)
            0.585                 (-1e+300 -1e+300 -1e+300)                 (-1e+300 -1e+300 -1e+300)                 (-1e+300 -1e+300 -1e+300)
             0.59                 (-1e+300 -1e+300 -1e+300)                 (-1e+300 -1e+300 -1e+300)                 (-1e+300 -1e+300 -1e+300)
            0.595                 (-1e+300 -1e+300 -1e+300)                 (-1e+300 -1e+300 -1e+300)                 (-1e+300 -1e+300 -1e+300)
              0.6                 (-1e+300 -1e+300 -1e+300)                 (-1e+300 -1e+300 -1e+300)                 (-1e+300 -1e+300 -1e+300)
            0.605                 (-1e+300 -1e+300 -1e+300)                 (-1e+300 -1e+300 -1e+300)                 (-1e+300 -1e+300 -1e+300)
             0.61                 (-1e+300 -1e+300 -1e+300)                 (-1e+300 -1e+300 -1e+300)                 (-1e+300 -1e+300 -1e+300)
            0.615                 (-1e+300 -1e+300 -1e+300)                 (-1e+300 -1e+300 -1e+300)                 (-1e+300 -1e+300 -1e+300)
             0.62                 (-1e+300 -1e+300 -1e+300)                 (-1e+300 -1e+300 -1e+300)                 (-1e+300 -1e+300 -1e+300)
            0.625                 (-1e+300 -1e+300 -1e+300)                 (-1e+300 -1e+300 -1e+300)                 (-1e+300 -1e+300 -1e+300)
             0.63                 (-1e+300 -1e+300 -1e+300)                 (-1e+300 -1e+300 -1e+300)                 (-1e+300 -1e+300 -1e+300)
            0.635                 (-1e+300 -1e+300 -1e+300)                 (-1e+300 -1e+300 -1e+300)                 (-1e+300 -1e+300 -1e+300)
             0.64                 (-1e+300 -1e+300 -1e+300)                 (-1e+300 -1e+300 -1e+300)                 (-1e+300 -1e+300 -1e+300)
            0.645                 (-1e+300 -1e+300 -1e+300)                 (-1e+300 -1e+300 -1e+300)                 (-1e+300 -1e+300 -1e+300)
             0.65                 (-1e+300 -1e+300 -1e+300)                 (-1e+300 -1e+300 -1e+300)                 (-1e+300 -1e+300 -1e+300)
            0.655                 (-1e+300 -1e+300 -1e+300)                 (-1e+300 -1e+300 -1e+300)                 (-1e+300 -1e+300 -1e+300)
             0.66                 (-1e+300 -1e+300 -1e+300)                 (-1e+300 -1e+300 -1e+300)                 (-1e+300 -1e+300 -1e+300)
            0.665                 (-1e+300 -1e+300 -1e+300)                 (-1e+300 -1e+300 -1e+300)                 (-1e+300 -1e+300 -1e+300)
             0.67                 (-1e+300 -1e+300 -1e+300)                 (-1e+300 -1e+300 -1e+300)                 (-1e+300 -1e+300 -1e+300)
            0.675                 (-1e+300 -1e+300 -1e+300)                 (-1e+300 -1e+300 -1e+300)                 (-1e+300 -1e+300 -1e+300)
             0.68                 (-1e+300 -1e+300 -1e+300)                 (-1e+300 -1e+300 -1e+300)                 (-1e+300 -1e+300 -1e+300)
            0.685                 (-1e+300 -1e+300 -1e+300)                 (-1e+300 -1e+300 -1e+300)                 (-1e+300 -1e+300 -1e+300)
             0.69                 (-1e+300 -1e+300 -1e+300)                 (-1e+300 -1e+300 -1e+300)                 (-1e+300 -1e+300 -1e+300)
            0.695                 (-1e+300 -1e+300 -1e+300)                 (-1e+300 -1e+300 -1e+300)                 (-1e+300 -1e+300 -1e+300)
              0.7                 (-1e+300 -1e+300 -1e+300)                 (-1e+300 -1e+300 -1e+300)                 (-1e+300 -1e+300 -1e+300)
            0.705                 (-1e+300 -1e+300 -1e+300)                 (-1e+300 -1e+300 -1e+300)                 (-1e+300 -1e+300 -1e+300)
             0.71                 (-1e+300 -1e+300 -1e+300)                 (-1e+300 -1e+300 -1e+300)                 (-1e+300 -1e+300 -1e+300)
            0.715                 (-1e+300 -1e+300 -1e+300)                 (-1e+300 -1e+300 -1e+300)                 (-1e+300 -1e+300 -1e+300)
             0.72                 (-1e+300 -1e+300 -1e+300)                 (-1e+300 -1e+300 -1e+300)                 (-1e+300 -1e+300 -1e+300)
            0.725                 (-1e+300 -1e+300 -1e+300)                 (-1e+300 -1e+300 -1e+300)                 (-1e+300 -1e+300 -1e+300)
             0.73                 (-1e+300 -1e+300 -1e+300)                 (-1e+300 -1e+300 -1e+300)                 (-1e+300 -1e+300 -1e+300)
            0.735                 (-1e+300 -1e+300 -1e+300)                 (-1e+300 -1e+300 -1e+300)                 (-1e+300 -1e+300 -1e+300)
             0.74                 (-1e+300 -1e+300 -1e+300)                 (-1e+300 -1e+300 -1e+300)                 (-1e+300 -1e+300 -1e+300)
            0.745                 (-1e+300 -1e+300 -1e+300)                 (-1e+300 -1e+300 -1e+300)                 (-1e+300 -1e+300 -1e+300)
             0.75                 (-1e+300 -1e+300 -1e+300)                 (-1e+300 -1e+300 -1e+300)                 (-1e+300 -1e+300 -1e+300)
            0.755                 (-1e+300 -1e+300 -1e+300)                 (-1e+300 -1e+300 -1e+300)                 (-1e+300 -1e+300 -1e+300)
             0.76                 (-1e+300 -1e+300 -1e+300)                 (-1e+300 -1e+300 -1e+300)                 (-1e+300 -1e+300 -1e+300)
            0.765                 (-1e+300 -1e+300 -1e+300)                 (-1e+300 -1e+300 -1e+300)                 (-1e+300 -1e+300 -1e+300)
             0.77                 (-1e+300 -1e+300 -1e+300)                 (-1e+300 -1e+300 -1e+300)                 (-1e+300 -1e+300 -1e+300)
            0.775                 (-1e+300 -1e+300 -1e+300)                 (-1e+300 -1e+300 -1e+300)                 (-1e+300 -1e+300 -1e+300)
             0.78                 (-1e+300 -1e+300 -1e+300)                 (-1e+300 -1e+300 -1e+300)                 (-1e+300 -1e+300 -1e+300)
            0.785                 (-1e+300 -1e+300 -1e+300)                 (-1e+300 -1e+300 -1e+300)                 (-1e+300 -1e+300 -1e+300)
             0.79                 (-1e+300 -1e+300 -1e+300)                 (-1e+300 -1e+300 -1e+300)                 (-1e+300 -1e+300 -1e+300)
            0.795                 (-1e+300 -1e+300 -1e+300)                 (-1e+300 -1e+300 -1e+300)                 (-1e+300 -1e+300 -1e+300)
              0.8                 (-1e+300 -1e+300 -1e+300)                 (-1e+300 -1e+300 -1e+300)                 (-1e+300 -1e+300 -1e+300)
            0.805                 (-1e+300 -1e+300 -1e+300)                 (-1e+300 -1e+300 -1e+300)                 (-1e+300 -1e+300 -1e+300)
             0.81                 (-1e+300 -1e+300 -1e+300)                 (-1e+300 -1e+300 -1e+300)                 (-1e+300 -1e+300 -1e+300)
            0.815                 (-1e+300 -1e+300 -1e+300)                 (-1e+300 -1e+300 -1e+300)                 (-1e+300 -1e+300 -1e+300)
             0.82                 (-1e+300 -1e+300 -1e+300)                 (-1e+300 -1e+300 -1e+300)                 (-1e+300 -1e+300 -1e+300)
            0.825                 (-1e+300 -1e+300 -1e+300)                 (-1e+300 -1e+300 -1e+300)                 (-1e+300 -1e+300 -1e+300)
             0.83                 (-1e+300 -1e+300 -1e+300)                 (-1e+300 -1e+300 -1e+300)                 (-1e+300 -1e+300 -1e+300)
            0.835                 (-1e+300 -1e+300 -1e+300)                 (-1e+300 -1e+300 -1e+300)                 (-1e+300 -1e+300 -1e+300)
             0.84                 (-1e+300 -1e+300 -1e+300)                 (-1e+300 -1e+300 -1e+300)                 (-1e+300 -1e+300 -1e+300)
            0.845                 (-1e+300 -1e+300 -1e+300)                 (-1e+300 -1e+300 -1e+300)                 (-1e+300 -1e+300 -1e+300)
             0.85                 (-1e+300 -1e+300 -1e+300)                 (-1e+300 -1e+300 -1e+300)                 (-1e+300 -1e+300 -1e+300)
            0.855                 (-1e+300 -1e+300 -1e+300)                 (-1e+300 -1e+300 -1e+300)                 (-1e+300 -1e+300 -1e+300)
             0.86                 (-1e+300 -1e+300 -1e+300)                 (-1e+300 -1e+300 -1e+300)                 (-1e+300 -1e+300 -1e+300)
            0.865                 (-1e+300 -1e+300 -1e+300)                 (-1e+300 -1e+300 -1e+300)                 (-1e+300 -1e+300 -1e+300)
             0.87                 (-1e+300 -1e+300 -1e+300)                 (-1e+300 -1e+300 -1e+300)                 (-1e+300 -1e+300 -1e+300)
            0.875                 (-1e+300 -1e+300 -1e+300)                 (-1e+300 -1e+300 -1e+300)                 (-1e+300 -1e+300 -1e+300)
             0.88                 (-1e+300 -1e+300 -1e+300)                 (-1e+300 -1e+300 -1e+300)                 (-1e+300 -1e+300 -1e+300)
            0.885                 (-1e+300 -1e+300 -1e+300)                 (-1e+300 -1e+300 -1e+300)                 (-1e+300 -1e+300 -1e+300)
             0.89                 (-1e+300 -1e+300 -1e+300)                 (-1e+300 -1e+300 -1e+300)                 (-1e+300 -1e+300 -1e+300)
            0.895                 (-1e+300 -1e+300 -1e+300)                 (-1e+300 -1e+300 -1e+300)                 (-1e+300 -1e+300 -1e+300)
              0.9                 (-1e+300 -1e+300 -1e+300)                 (-1e+300 -1e+300 -1e+300)                 (-1e+300 -1e+300 -1e+300)
            0.905                 (-1e+300 -1e+300 -1e+300)                 (-1e+300 -1e+300 -1e+300)                 (-1e+300 -1e+300 -1e+300)
             0.91                 (-1e+300 -1e+300 -1e+300)                 (-1e+300 -1e+300 -1e+300)                 (-1e+300 -1e+300 -1e+300)
            0.915                 (-1e+300 -1e+300 -1e+300)                 (-1e+300 -1e+300 -1e+300)                 (-1e+300 -1e+300 -1e+300)
             0.92                 (-1e+300 -1e+300 -1e+300)                 (-1e+300 -1e+300 -1e+300)                 (-1e+300 -1e+300 -1e+300)
            0.925                 (-1e+300 -1e+300 -1e+300)                 (-1e+300 -1e+300 -1e+300)                 (-1e+300 -1e+300 -1e+300)
             0.93                 (-1e+300 -1e+300 -1e+300)                 (-1e+300 -1e+300 -1e+300)                 (-1e+300 -1e+300 -1e+300)
            0.935                 (-1e+300 -1e+300 -1e+300)                 (-1e+300 -1e+300 -1e+300)                 (-1e+300 -1e+300 -1e+300)
             0.94                 (-1e+300 -1e+300 -1e+300)                 (-1e+300 -1e+300 -1e+300)                 (-1e+300 -1e+300 -1e+300)
            0.945                 (-1e+300 -1e+300 -1e+300)                 (-1e+300 -1e+300 -1e+300)                 (-1e+300 -1e+300 -1e+300)
             0.95                 (-1e+300 -1e+300 -1e+300)                 (-1e+300 -1e+300 -1e+300)                 (-1e+300 -1e+300 -1e+300)
            0.955                 (-1e+300 -1e+300 -1e+300)                 (-1e+300 -1e+300 -1e+300)                 (-1e+300 -1e+300 -1e+300)
             0.96                 (-1e+300 -1e+300 -1e+300)                 (-1e+300 -1e+300 -1e+300)                 (-1e+300 -1e+300 -1e+300)
            0.965                 (-1e+300 -1e+300 -1e+300)                 (-1e+300 -1e+300 -1e+300)                 (-1e+300 -1e+300 -1e+300)
             0.97                 (-1e+300 -1e+300 -1e+300)                 (-1e+300 -1e+300 -1e+300)                 (-1e+300 -1e+300 -1e+300)
            0.975                 (-1e+300 -1e+300 -1e+300)                 (-1e+300 -1e+300 -1e+300)                 (-1e+300 -1e+300 -1e+300)
             0.98                 (-1e+300 -1e+300 -1e+300)                 (-1e+300 -1e+300 -1e+300)                 (-1e+300 -1e+300 -1e+300)
            0.985                 (-1e+300 -1e+300 -1e+300)                 (-1e+300 -1e+300 -1e+300)                 (-1e+300 -1e+300 -1e+300)
             0.99                 (-1e+300 -1e+300 -1e+300)                 (-1e+300 -1e+300 -1e+300)                 (-1e+300 -1e+300 -1e+300)
            0.995                 (-1e+300 -1e+300 -1e+300)                 (-1e+300 -1e+300 -1e+300)                 (-1e+300 -1e+300 -1e+300)
                1                 (-1e+300 -1e+300 -1e+300)                 (-1e+300 -1e+300 -1e+300)                 (-1e+300 -1e+300 -1e+300)
