/*--------------------------------*- C++ -*----------------------------------*\
| =========                 |                                                 |
| \\      /  F ield         | foam-extend: Open Source CFD                    |
|  \\    /   O peration     | Version:     4.1                                |
|   \\  /    A nd           | Web:         http://www.foam-extend.org         |
|    \\/     M anipulation  |                                                 |
\*---------------------------------------------------------------------------*/
FoamFile
{
    version     2.0;
    format      ascii;
    class       volScalarField;
    location    "30000";
    object      p;
}
// * * * * * * * * * * * * * * * * * * * * * * * * * * * * * * * * * * * * * //

dimensions      [0 2 -2 0 0 0 0];

internalField   nonuniform List<scalar> 
15920
(
1.857131924e-08
1.574559151e-08
1.355208445e-08
1.243052603e-08
1.162897308e-08
1.080153927e-08
9.995705976e-09
9.289462456e-09
8.686181715e-09
8.164134523e-09
7.71223789e-09
7.32698297e-09
7.003281102e-09
6.733010563e-09
6.507119848e-09
6.316964573e-09
6.154590682e-09
6.012808221e-09
5.885323557e-09
5.766826909e-09
5.652976246e-09
5.540311428e-09
5.426142034e-09
5.308429405e-09
5.185671025e-09
5.056792863e-09
4.921102493e-09
4.778130355e-09
4.627630638e-09
4.469142864e-09
4.302979121e-09
4.129095803e-09
3.947398088e-09
3.7579015e-09
3.560685087e-09
3.355835826e-09
3.1434631e-09
2.923676034e-09
2.696574404e-09
2.462273529e-09
2.220912263e-09
1.972643372e-09
1.717634355e-09
1.456075228e-09
1.188182797e-09
9.142018206e-10
6.34406404e-10
3.49101938e-10
5.86265421e-11
-2.366482511e-10
1.32754558e-08
1.292412771e-08
1.235446729e-08
1.182321743e-08
1.130863011e-08
1.072995391e-08
1.011279674e-08
9.512631071e-09
8.95528391e-09
8.446894697e-09
7.991244907e-09
7.591746426e-09
7.248023671e-09
6.955399309e-09
6.706820521e-09
6.494659037e-09
6.311513297e-09
6.150510145e-09
6.005509526e-09
5.871241254e-09
5.743331535e-09
5.618243658e-09
5.493180861e-09
5.365978465e-09
5.234991778e-09
5.098965397e-09
4.956918307e-09
4.808292453e-09
4.652951564e-09
4.49117261e-09
4.321796435e-09
4.144750238e-09
3.960237606e-09
3.768307729e-09
3.568954521e-09
3.362135492e-09
3.148048075e-09
2.92669015e-09
2.698031238e-09
2.462264178e-09
2.21957863e-09
1.970101165e-09
1.713966218e-09
1.451351681e-09
1.182471625e-09
9.075680379e-10
6.269121828e-10
3.40808025e-10
4.959358619e-11
-2.463588203e-10
1.27568422e-08
1.259324446e-08
1.215026055e-08
1.158911063e-08
1.104693647e-08
1.052682588e-08
1.000925381e-08
9.50566697e-09
9.03332955e-09
8.598731276e-09
8.202275204e-09
7.843988386e-09
7.523357119e-09
7.238180989e-09
6.984923509e-09
6.759476022e-09
6.557582068e-09
6.37498284e-09
6.207543557e-09
6.0514023e-09
5.903082391e-09
5.759544542e-09
5.618194305e-09
5.476862833e-09
5.33377076e-09
5.187493013e-09
5.036944832e-09
4.881353442e-09
4.72016237e-09
4.552863627e-09
4.37882932e-09
4.197837412e-09
4.009839743e-09
3.814738435e-09
3.612448681e-09
3.403072134e-09
3.186606074e-09
2.963076226e-09
2.731985622e-09
2.493592694e-09
2.248157715e-09
1.995833037e-09
1.736767653e-09
1.471148169e-09
1.199194158e-09
9.211540633e-10
6.373076485e-10
3.47968479e-10
5.34837407e-11
-2.457650941e-10
1.177094373e-08
1.162785874e-08
1.134328859e-08
1.098213237e-08
1.060467746e-08
1.02226017e-08
9.82969895e-09
9.432941893e-09
9.046873014e-09
8.680810927e-09
8.338035192e-09
8.019881089e-09
7.727158958e-09
7.459613783e-09
7.215750599e-09
6.993231925e-09
6.789284478e-09
6.600936294e-09
6.425166376e-09
6.259040569e-09
6.099824235e-09
5.945051347e-09
5.792553751e-09
5.640464919e-09
5.487208973e-09
5.331481139e-09
5.172220012e-09
5.008571981e-09
4.839852279e-09
4.665512444e-09
4.48509652e-09
4.298259006e-09
4.104768421e-09
3.904444841e-09
3.697165034e-09
3.482791742e-09
3.260834613e-09
3.031260869e-09
2.794889673e-09
2.551580985e-09
2.301193209e-09
2.0438071e-09
1.779595682e-09
1.508748002e-09
1.231472958e-09
9.480155536e-10
6.58660752e-10
3.637312837e-10
6.358711345e-11
-2.413757926e-10
1.114320309e-08
1.107222253e-08
1.090021982e-08
1.064844667e-08
1.035509564e-08
1.004173482e-08
9.715127888e-09
9.381856338e-09
9.051547461e-09
8.732115288e-09
8.427780436e-09
8.140595231e-09
7.871719958e-09
7.621469019e-09
7.389160322e-09
7.173322713e-09
6.972030605e-09
6.783137305e-09
6.60440761e-09
6.433616579e-09
6.268633804e-09
6.107483233e-09
5.948375656e-09
5.78972126e-09
5.630129849e-09
5.468402857e-09
5.3035198e-09
5.134622402e-09
4.960996237e-09
4.782047384e-09
4.597271646e-09
4.406258041e-09
4.208703663e-09
4.004358697e-09
3.79276356e-09
3.573695371e-09
3.34722218e-09
3.113541688e-09
2.872775057e-09
2.624765434e-09
2.369418821e-09
2.106820832e-09
1.837140114e-09
1.560563973e-09
1.277304676e-09
9.876170972e-10
6.918016967e-10
3.902004865e-10
8.319440531e-11
-2.287978811e-10
1.066764282e-08
1.061737122e-08
1.049160655e-08
1.030038859e-08
1.007005911e-08
9.818674072e-09
9.553591238e-09
9.279658089e-09
9.003214203e-09
8.730473648e-09
8.465685082e-09
8.211295302e-09
7.968742169e-09
7.73874629e-09
7.521294254e-09
7.315723113e-09
7.120918702e-09
6.935492137e-09
6.757894487e-09
6.586500529e-09
6.419681708e-09
6.255865241e-09
6.093574393e-09
5.931452116e-09
5.768272758e-09
5.602945662e-09
5.434512945e-09
5.262142563e-09
5.08511783e-09
4.902822546e-09
4.714686841e-09
4.520272758e-09
4.31914834e-09
4.11094656e-09
3.895574903e-09
3.672863865e-09
3.442704319e-09
3.205016115e-09
2.959726864e-09
2.706792844e-09
2.446224743e-09
2.178106784e-09
1.902580244e-09
1.619825969e-09
1.330065176e-09
1.03356576e-09
7.306433335e-10
4.21658553e-10
1.070145839e-10
-2.12844669e-10
1.029680964e-08
1.025889634e-08
1.016516473e-08
1.002086605e-08
9.84226574e-09
9.641601059e-09
9.425112628e-09
9.197310137e-09
8.963349678e-09
8.728346469e-09
8.496206401e-09
8.26948198e-09
8.049805091e-09
7.838166964e-09
7.634967945e-09
7.440060541e-09
7.252866378e-09
7.072508797e-09
6.897915523e-09
6.727895005e-09
6.561200168e-09
6.396581803e-09
6.232828366e-09
6.068792894e-09
5.903409593e-09
5.735702244e-09
5.564786681e-09
5.389865856e-09
5.210228902e-09
5.025267284e-09
4.834453921e-09
4.637264547e-09
4.433285002e-09
4.222197753e-09
4.003761404e-09
3.777731093e-09
3.543903773e-09
3.302148372e-09
3.052400829e-09
2.794644825e-09
2.528896532e-09
2.255217936e-09
1.973729431e-09
1.684608045e-09
1.388082829e-09
1.084434028e-09
7.739932023e-10
4.571417772e-10
1.343084874e-10
-1.940334568e-10
1.000623799e-08
9.977201722e-09
9.905188375e-09
9.792799703e-09
9.65059998e-09
9.487163634e-09
9.307658903e-09
9.116145548e-09
8.916843075e-09
8.713809793e-09
8.510320513e-09
8.308724735e-09
8.110646339e-09
7.917161494e-09
7.728858902e-09
7.54587683e-09
7.367978186e-09
7.194644515e-09
7.025157551e-09
6.858662661e-09
6.694220735e-09
6.530852957e-09
6.367576384e-09
6.203429525e-09
6.037490769e-09
5.86889648e-09
5.696838756e-09
5.520578259e-09
5.33944036e-09
5.152790749e-09
4.960076296e-09
4.760795857e-09
4.554517433e-09
4.34087084e-09
4.119538366e-09
3.890252411e-09
3.65280102e-09
3.407034341e-09
3.152858205e-09
2.890224295e-09
2.619129715e-09
2.339627286e-09
2.051833507e-09
1.755927637e-09
1.452147824e-09
1.140789409e-09
8.222044577e-10
4.968001941e-10
1.650360157e-10
-1.725802192e-10
9.777247992e-09
9.754224079e-09
9.6970248e-09
9.607086593e-09
9.49184441e-09
9.357427575e-09
9.207745252e-09
9.046041668e-09
8.875659538e-09
8.699813144e-09
8.521205595e-09
8.341913403e-09
8.163467428e-09
7.986948924e-09
7.813037e-09
7.642041145e-09
7.473951454e-09
7.308502471e-09
7.145233517e-09
6.983540279e-09
6.82271732e-09
6.661994687e-09
6.500568549e-09
6.337636496e-09
6.172381749e-09
6.004052505e-09
5.831903838e-09
5.655230544e-09
5.473376096e-09
5.285729936e-09
5.091736156e-09
4.890888946e-09
4.682731523e-09
4.466859329e-09
4.242922449e-09
4.010625666e-09
3.769726211e-09
3.520035465e-09
3.261420995e-09
2.993807709e-09
2.717180173e-09
2.431586372e-09
2.137140775e-09
1.834024914e-09
1.522486406e-09
1.202837881e-09
8.754557001e-10
5.407776406e-10
1.992992933e-10
-1.484304813e-10
9.596977923e-09
9.578294987e-09
9.531884061e-09
9.458593016e-09
9.363865698e-09
9.252108095e-09
9.126156051e-09
8.988510162e-09
8.841831906e-09
8.688710006e-09
8.531372077e-09
8.371600333e-09
8.2107708e-09
8.04990337e-09
7.889690348e-09
7.730520119e-09
7.572511461e-09
7.415557739e-09
7.259370047e-09
7.103517495e-09
6.947460465e-09
6.790599326e-09
6.632237276e-09
6.471716726e-09
6.308343691e-09
6.141390992e-09
5.970179893e-09
5.794053693e-09
5.612379962e-09
5.424558366e-09
5.230026043e-09
5.028260296e-09
4.818780752e-09
4.601153556e-09
4.374994604e-09
4.139971043e-09
3.895802931e-09
3.642267017e-09
3.379201099e-09
3.106507166e-09
2.824153825e-09
2.532179111e-09
2.230693526e-09
1.919882081e-09
1.600004725e-09
1.271395458e-09
9.344604023e-10
5.896747182e-10
2.375781975e-10
-1.212303462e-10
9.45621574e-09
9.440797124e-09
9.402490477e-09
9.341794818e-09
9.262825759e-09
9.16882651e-09
9.061856705e-09
8.943821938e-09
8.81682644e-09
8.682944313e-09
8.543986263e-09
8.401440948e-09
8.256499677e-09
8.110080463e-09
7.962839433e-09
7.81518439e-09
7.667297208e-09
7.519163971e-09
7.370605788e-09
7.221330587e-09
7.070868137e-09
6.918772856e-09
6.764498822e-09
6.607397396e-09
6.446850917e-09
6.282222614e-09
6.112873987e-09
5.938172582e-09
5.757498452e-09
5.57025169e-09
5.375858608e-09
5.173776755e-09
4.963499278e-09
4.744559531e-09
4.516535695e-09
4.279055211e-09
4.031799423e-09
3.774508678e-09
3.506987512e-09
3.229109424e-09
2.940821267e-09
2.642147527e-09
2.333194175e-09
2.014151346e-09
1.685294332e-09
1.34698291e-09
9.996591351e-10
6.438435497e-10
2.80129736e-10
-9.082270629e-11
9.348042395e-09
9.335137604e-09
9.30307142e-09
9.252133154e-09
9.185525196e-09
9.105692546e-09
9.014133613e-09
8.912279732e-09
8.801774346e-09
8.684267007e-09
8.561218903e-09
8.433857187e-09
8.303191301e-09
8.170022724e-09
8.034945127e-09
7.898350253e-09
7.76044243e-09
7.621262662e-09
7.480643619e-09
7.338420652e-09
7.194285312e-09
7.047741493e-09
6.898316406e-09
6.745475355e-09
6.58864699e-09
6.427233599e-09
6.26062066e-09
6.088188295e-09
5.909319473e-09
5.723406724e-09
5.529858575e-09
5.328105772e-09
5.1176073e-09
4.897856494e-09
4.668387439e-09
4.428781549e-09
4.178674262e-09
3.917761927e-09
3.645808828e-09
3.36265411e-09
3.068218289e-09
2.762509137e-09
2.445626629e-09
2.117766496e-09
1.779222001e-09
1.430383698e-09
1.07173708e-09
7.038580052e-10
3.274059128e-10
-5.688503404e-11
9.267131217e-09
9.256209797e-09
9.229067815e-09
9.185864578e-09
9.129146845e-09
9.06079253e-09
8.981893605e-09
8.893517196e-09
8.796940464e-09
8.693471589e-09
8.584284314e-09
8.470379624e-09
8.352596969e-09
8.23161715e-09
8.10795651e-09
7.981964891e-09
7.853825549e-09
7.723599439e-09
7.591260854e-09
7.456544224e-09
7.319179387e-09
7.178791799e-09
7.034944298e-09
6.887142396e-09
6.734842388e-09
6.577466182e-09
6.414411728e-09
6.245061599e-09
6.068790509e-09
5.884972397e-09
5.692987607e-09
5.492230171e-09
5.282115194e-09
5.06208649e-09
4.831624623e-09
4.590255343e-09
4.337558381e-09
4.073176559e-09
3.796825092e-09
3.508300811e-09
3.207490922e-09
2.894380951e-09
2.569061472e-09
2.231733174e-09
1.882709764e-09
1.52241832e-09
1.151396806e-09
7.702886046e-10
3.798340661e-10
-1.914071144e-11
9.209284968e-09
9.199964592e-09
9.176794129e-09
9.139850227e-09
9.091194208e-09
9.032292223e-09
8.963942422e-09
8.8869374e-09
8.802267328e-09
8.71096658e-09
8.613971928e-09
8.512090291e-09
8.406007745e-09
8.296287921e-09
8.183365067e-09
8.067539947e-09
7.948990541e-09
7.82775016e-09
7.703756719e-09
7.576823483e-09
7.446691587e-09
7.313021183e-09
7.175394862e-09
7.033333954e-09
6.886309451e-09
6.733751314e-09
6.575056516e-09
6.409596538e-09
6.236724884e-09
6.055784642e-09
5.866116201e-09
5.667065241e-09
5.457991151e-09
5.238276014e-09
5.007334266e-09
4.764623073e-09
4.509653364e-09
4.24200142e-09
3.961320818e-09
3.667354395e-09
3.359945819e-09
3.039050274e-09
2.704743711e-09
2.357230039e-09
1.99684563e-09
1.624060549e-09
1.239476068e-09
8.438181985e-10
4.379271893e-10
2.274324208e-11
9.171120801e-09
9.163123526e-09
9.14322471e-09
9.111448506e-09
9.069488733e-09
9.018507173e-09
8.959088565e-09
8.891816322e-09
8.817455001e-09
8.736822428e-09
8.650663082e-09
8.559619865e-09
8.464244893e-09
8.364997696e-09
8.262232238e-09
8.156190854e-09
8.047006389e-09
7.934701105e-09
7.819200607e-09
7.700335416e-09
7.577848045e-09
7.451402151e-09
7.320588582e-09
7.184934715e-09
7.043912555e-09
6.896945555e-09
6.743415456e-09
6.58266935e-09
6.414026925e-09
6.236787916e-09
6.050239938e-09
5.853666956e-09
5.646358562e-09
5.427620224e-09
5.196784588e-09
4.953223889e-09
4.696363424e-09
4.425695955e-09
4.140796776e-09
3.841339083e-09
3.5271091e-09
3.198020342e-09
2.854126254e-09
2.495630393e-09
2.122893266e-09
1.736434999e-09
1.33693313e-09
9.252150684e-10
5.022450729e-10
6.910596529e-11
9.149853887e-09
9.142966919e-09
9.12581562e-09
9.098391389e-09
9.06209795e-09
9.017865646e-09
8.966131597e-09
8.907321242e-09
8.842015713e-09
8.770861389e-09
8.69444695e-09
8.613281503e-09
8.527802275e-09
8.438372928e-09
8.345272033e-09
8.248685329e-09
8.148704312e-09
8.045327007e-09
7.938460976e-09
7.827926412e-09
7.713459773e-09
7.594720454e-09
7.471296009e-09
7.342707235e-09
7.208413739e-09
7.067819615e-09
6.920279276e-09
6.765103535e-09
6.601566039e-09
6.42891024e-09
6.246357143e-09
6.053114079e-09
5.848384683e-09
5.631380299e-09
5.401332907e-09
5.157509682e-09
4.899229165e-09
4.625878891e-09
4.336934221e-09
4.031977909e-09
3.710719773e-09
3.37301566e-09
3.018884692e-09
2.648523656e-09
2.262317305e-09
1.860843343e-09
1.444871032e-09
1.015352615e-09
5.73407191e-10
1.202972146e-10
9.143208601e-09
9.137241084e-09
9.122429094e-09
9.098744313e-09
9.067345581e-09
9.028977677e-09
8.9839477e-09
8.932581119e-09
8.875344151e-09
8.812730453e-09
8.745195289e-09
8.673136867e-09
8.596897294e-09
8.516758198e-09
8.432930536e-09
8.345546559e-09
8.254656408e-09
8.160227241e-09
8.062143497e-09
7.960208247e-09
7.85414517e-09
7.743601512e-09
7.628151155e-09
7.507297803e-09
7.380478708e-09
7.247068746e-09
7.10638477e-09
6.957690356e-09
6.800201208e-09
6.633091426e-09
6.45550092e-09
6.266544207e-09
6.065320877e-09
5.850927964e-09
5.622474469e-09
5.379098154e-09
5.119984687e-09
4.844389005e-09
4.551658647e-09
4.241258537e-09
3.912796483e-09
3.566048348e-09
3.200981589e-09
2.8177756e-09
2.416837138e-09
1.998809044e-09
1.564570598e-09
1.115228165e-09
6.52095361e-10
1.766627599e-10
9.149120721e-09
9.143954706e-09
9.13117833e-09
9.11075672e-09
9.083648854e-09
9.050453895e-09
9.011402407e-09
8.966730605e-09
8.916790953e-09
8.861970535e-09
8.802624501e-09
8.739060853e-09
8.671541798e-09
8.600279106e-09
8.525424462e-09
8.447061405e-09
8.365200877e-09
8.279778902e-09
8.190655178e-09
8.097612386e-09
8.00035615e-09
7.898515655e-09
7.79164476e-09
7.679223425e-09
7.560659504e-09
7.435290923e-09
7.302388317e-09
7.161158292e-09
7.010747543e-09
6.850248104e-09
6.678704038e-09
6.495119897e-09
6.298471326e-09
6.08771818e-09
5.86182048e-09
5.619757492e-09
5.36055008e-09
5.083286351e-09
4.787150341e-09
4.471453272e-09
4.135666488e-09
3.779454843e-09
3.402708844e-09
3.005573452e-09
2.588471134e-09
2.152116537e-09
1.69752023e-09
1.225979261e-09
7.390530772e-10
2.385244316e-10
9.165805782e-09
9.161385743e-09
9.150439916e-09
9.132928623e-09
9.10965543e-09
9.081108328e-09
9.047456425e-09
9.0088699e-09
8.965619228e-09
8.918008094e-09
8.866312089e-09
8.81076589e-09
8.751565787e-09
8.688865428e-09
8.622766403e-09
8.553310086e-09
8.480472487e-09
8.404160785e-09
8.324210488e-09
8.240383074e-09
8.152364215e-09
8.059762543e-09
7.962108829e-09
7.858855467e-09
7.74937627e-09
7.632966674e-09
7.508844488e-09
7.376151368e-09
7.233955277e-09
7.081254261e-09
6.916981931e-09
6.740015095e-09
6.549184027e-09
6.343285907e-09
6.121101921e-09
5.881418496e-09
5.623053027e-09
5.344884278e-09
5.045887383e-09
4.725173005e-09
4.382029764e-09
4.015968446e-09
3.626765915e-09
3.214505944e-09
2.779613609e-09
2.322879422e-09
1.845469239e-09
1.348916283e-09
8.35092524e-10
3.0615832e-10
9.1917759e-09
9.188029568e-09
9.178736345e-09
9.163855532e-09
9.144060482e-09
9.119749849e-09
9.091047533e-09
9.058077266e-09
9.021047737e-09
8.980195608e-09
8.935733128e-09
8.88783734e-09
8.836652364e-09
8.782285239e-09
8.72479686e-09
8.664193874e-09
8.600423032e-09
8.533366809e-09
8.462839384e-09
8.38858289e-09
8.310264074e-09
8.227471315e-09
8.139711911e-09
8.046409573e-09
7.946902162e-09
7.840439761e-09
7.726183249e-09
7.603203598e-09
7.470482187e-09
7.326912548e-09
7.171304015e-09
7.002387839e-09
6.818826442e-09
6.6192265e-09
6.402156635e-09
6.16617043e-09
5.909835445e-09
5.631768723e-09
5.33067901e-09
5.005415441e-09
4.655021899e-09
4.278795415e-09
3.876346111e-09
3.447655093e-09
2.993125699e-09
2.513622554e-09
2.010492377e-09
1.485560555e-09
9.410985469e-10
3.797593513e-10
9.225627191e-09
9.222493133e-09
9.214713411e-09
9.202249803e-09
9.185660229e-09
9.165269266e-09
9.14116924e-09
9.113451536e-09
9.082278087e-09
9.047833636e-09
9.010281871e-09
8.96975608e-09
8.926360579e-09
8.880166542e-09
8.831203477e-09
8.7794513e-09
8.724834301e-09
8.667215983e-09
8.606394026e-09
8.542095312e-09
8.473971126e-09
8.401592503e-09
8.324445662e-09
8.241927458e-09
8.153340912e-09
8.057890913e-09
7.954680271e-09
7.842706365e-09
7.720858747e-09
7.587918145e-09
7.442557454e-09
7.283345419e-09
7.108753867e-09
6.917169437e-09
6.706910893e-09
6.476253127e-09
6.223458977e-09
5.946819837e-09
5.644705786e-09
5.315625443e-09
4.95829506e-09
4.571715296e-09
4.155252837e-09
3.708722403e-09
3.232462936e-09
2.727400086e-09
2.195085764e-09
1.637705126e-09
1.058042262e-09
4.593986753e-10
9.266074899e-09
9.263508077e-09
9.257134503e-09
9.246921051e-09
9.23332256e-09
9.216601772e-09
9.19683032e-09
9.174078569e-09
9.148474258e-09
9.120163228e-09
9.089273148e-09
9.055905358e-09
9.020135363e-09
8.982008621e-09
8.941532552e-09
8.898668823e-09
8.853326985e-09
8.805358637e-09
8.754551497e-09
8.700623313e-09
8.6432157e-09
8.581887888e-09
8.516110278e-09
8.445257787e-09
8.368603004e-09
8.285309239e-09
8.194423673e-09
8.094870824e-09
7.98544674e-09
7.864814396e-09
7.731500989e-09
7.583897967e-09
7.420264861e-09
7.23873818e-09
7.037346828e-09
6.814035663e-09
6.566698951e-09
6.293225434e-09
5.991556522e-09
5.659758684e-09
5.296110218e-09
4.899201356e-09
4.468044816e-09
4.002191608e-09
3.501844029e-09
2.9679548e-09
2.40229848e-09
1.807499559e-09
1.187001976e-09
5.449682246e-10
9.311926817e-09
9.309892178e-09
9.304839147e-09
9.296742065e-09
9.285963445e-09
9.272714072e-09
9.257053345e-09
9.239039717e-09
9.218777065e-09
9.19638319e-09
9.171960497e-09
9.145588817e-09
9.117324967e-09
9.087198419e-09
9.055203789e-09
9.021293345e-09
8.985370383e-09
8.947282817e-09
8.906816463e-09
8.863687939e-09
8.817537237e-09
8.767919898e-09
8.714298711e-09
8.656034863e-09
8.592378553e-09
8.522459134e-09
8.445274917e-09
8.359682882e-09
8.26438866e-09
8.157937301e-09
8.03870559e-09
7.904896878e-09
7.754539693e-09
7.585491697e-09
7.395450927e-09
7.181976572e-09
6.942521866e-09
6.674481855e-09
6.375258786e-09
6.042347535e-09
5.673442689e-09
5.266567372e-09
4.820221648e-09
4.333544982e-09
3.806482985e-09
3.239943536e-09
2.635922036e-09
1.997570818e-09
1.329185721e-09
6.360858217e-10
9.362063431e-09
9.360532664e-09
9.356730569e-09
9.350640836e-09
9.342542517e-09
9.332602413e-09
9.320874465e-09
9.30741268e-09
9.292305746e-09
9.275652741e-09
9.257540254e-09
9.238036021e-09
9.217187535e-09
9.19501756e-09
9.171517085e-09
9.146638079e-09
9.12028669e-09
9.092316356e-09
9.062520416e-09
9.030624119e-09
8.996276017e-09
8.959038656e-09
8.918378427e-09
8.873654498e-09
8.824106756e-09
8.768842782e-09
8.706823921e-09
8.63685062e-09
8.557547353e-09
8.467347618e-09
8.364479779e-09
8.246954793e-09
8.112557247e-09
7.958841595e-09
7.78313596e-09
7.582556542e-09
7.354036241e-09
7.094371629e-09
6.800292797e-09
6.468560618e-09
6.096095464e-09
5.680139897e-09
5.218455138e-09
4.709546692e-09
4.152908208e-09
3.549264544e-09
2.900785691e-09
2.211233543e-09
1.485995962e-09
7.319605021e-10
9.415424463e-09
9.414373846e-09
9.411764122e-09
9.407589728e-09
9.40205363e-09
9.39528527e-09
9.387338733e-09
9.378269823e-09
9.368159401e-09
9.357095883e-09
9.34515837e-09
9.332410999e-09
9.318900592e-09
9.304652051e-09
9.28966177e-09
9.273890689e-09
9.257257405e-09
9.239630923e-09
9.220822731e-09
9.200578057e-09
9.178566229e-09
9.15436999e-09
9.127473603e-09
9.097249589e-09
9.062943952e-09
9.023659817e-09
8.978339427e-09
8.925744564e-09
8.864435574e-09
8.792749407e-09
8.708777339e-09
8.61034338e-09
8.49498488e-09
8.359937402e-09
8.202126745e-09
8.018171803e-09
7.804403106e-09
7.556902898e-09
7.271573671e-09
6.944242823e-09
6.570811307e-09
6.147453268e-09
5.670870964e-09
5.138603903e-09
4.54938229e-09
3.903501822e-09
3.20318054e-09
2.452840302e-09
1.659240558e-09
8.313823416e-10
9.470999507e-09
9.470408189e-09
9.468939205e-09
9.466598816e-09
9.463520192e-09
9.459801012e-09
9.455500163e-09
9.450680463e-09
9.445421235e-09
9.439807228e-09
9.43391743e-09
9.42782005e-09
9.421569266e-09
9.415200515e-09
9.408724415e-09
9.402120191e-09
9.395328803e-09
9.388245495e-09
9.380711505e-09
9.372504759e-09
9.363329389e-09
9.352803878e-09
9.340447599e-09
9.325665494e-09
9.307730672e-09
9.285764673e-09
9.258715211e-09
9.225331269e-09
9.184135532e-09
9.133394344e-09
9.071085635e-09
8.994865638e-09
8.902035766e-09
8.789511762e-09
8.653798244e-09
8.49097303e-09
8.29668714e-09
8.066188265e-09
7.794377639e-09
7.475912179e-09
7.105365439e-09
6.677461524e-09
6.187394784e-09
5.631243286e-09
5.006473753e-09
4.312517006e-09
3.551363653e-09
2.728089627e-09
1.851183824e-09
9.325249191e-10
9.527822113e-09
9.527670726e-09
9.527294465e-09
9.526712213e-09
9.525992864e-09
9.525207116e-09
9.524422506e-09
9.523713239e-09
9.523162467e-09
9.522857352e-09
9.522883286e-09
9.523319459e-09
9.524234767e-09
9.525683074e-09
9.527697705e-09
9.530285339e-09
9.533419309e-09
9.537032132e-09
9.541007073e-09
9.545168521e-09
9.549270941e-09
9.552986144e-09
9.555888558e-09
9.557438154e-09
9.556960663e-09
9.553624651e-09
9.546415083e-09
9.534102952e-09
9.515210708e-09
9.487973273e-09
9.450294705e-09
9.399700903e-09
9.333289315e-09
9.247677448e-09
9.138953151e-09
9.002631294e-09
8.833623641e-09
8.62623151e-09
8.374174204e-09
8.070670529e-09
7.708594637e-09
7.280730892e-09
6.78015402e-09
6.200758649e-09
5.537953796e-09
4.789519765e-09
3.956587743e-09
3.044634979e-09
2.064281631e-09
1.031532637e-09
9.584966688e-09
9.585236238e-09
9.585905555e-09
9.587006708e-09
9.588549306e-09
9.590581194e-09
9.593181714e-09
9.596440055e-09
9.600447751e-09
9.605299622e-09
9.61109315e-09
9.617924627e-09
9.625884321e-09
9.635051792e-09
9.64549104e-09
9.657245007e-09
9.670329217e-09
9.684724515e-09
9.700368752e-09
9.717147151e-09
9.734881061e-09
9.753314751e-09
9.772099871e-09
9.790777099e-09
9.808754457e-09
9.825281696e-09
9.839420067e-09
9.850006805e-09
9.855613592e-09
9.8544983e-09
9.844549458e-09
9.823223106e-09
9.787472204e-09
9.733669537e-09
9.657526293e-09
9.554010369e-09
9.41727118e-09
9.240581624e-09
9.016313157e-09
8.735966426e-09
8.390288859e-09
7.969519498e-09
7.463808926e-09
6.863865442e-09
6.161870752e-09
5.352689994e-09
4.435362211e-09
3.414812554e-09
2.303597131e-09
1.123177812e-09
9.641547735e-09
9.642218684e-09
9.643885062e-09
9.646592449e-09
9.650295817e-09
9.65502377e-09
9.66086995e-09
9.667941411e-09
9.676341848e-09
9.686178167e-09
9.697564793e-09
9.710620414e-09
9.725462502e-09
9.742202798e-09
9.760943233e-09
9.78177117e-09
9.804753602e-09
9.829930355e-09
9.8573062e-09
9.886841597e-09
9.918441686e-09
9.951943143e-09
9.987098423e-09
1.002355682e-08
1.006084164e-08
1.009832273e-08
1.013518332e-08
1.017038023e-08
1.020259609e-08
1.023018235e-08
1.025109155e-08
1.026279752e-08
1.026220249e-08
1.024553024e-08
1.020820595e-08
1.014472485e-08
1.004851476e-08
9.911802272e-09
9.72549914e-09
9.479135517e-09
9.160879874e-09
8.757705456e-09
8.255785403e-09
7.641224681e-09
6.901240198e-09
6.025888281e-09
5.010318312e-09
3.857450136e-09
2.580833352e-09
1.207470436e-09
9.696720991e-09
9.697772519e-09
9.700384242e-09
9.704615342e-09
9.710370606e-09
9.717662564e-09
9.726601028e-09
9.737313088e-09
9.74991762e-09
9.764537229e-09
9.781307259e-09
9.800373163e-09
9.82188451e-09
9.845990741e-09
9.872837993e-09
9.902565241e-09
9.935299278e-09
9.971148654e-09
1.001019657e-08
1.005249244e-08
1.00980416e-08
1.014679291e-08
1.019862351e-08
1.025332015e-08
1.031055635e-08
1.036986419e-08
1.043059971e-08
1.04919003e-08
1.055263238e-08
1.061132729e-08
1.066610285e-08
1.071456797e-08
1.075370728e-08
1.077974285e-08
1.078797042e-08
1.077256873e-08
1.072638294e-08
1.06406876e-08
1.050494205e-08
1.030656291e-08
1.003075706e-08
9.660484753e-09
9.176661969e-09
8.558786965e-09
7.786227892e-09
6.840607574e-09
5.709426922e-09
4.3912803e-09
2.901086853e-09
1.274401332e-09
9.749686104e-09
9.751095533e-09
9.754596253e-09
9.760260903e-09
9.767948436e-09
9.7776581e-09
9.789517127e-09
9.803674102e-09
9.820265332e-09
9.839431888e-09
9.861333077e-09
9.886144463e-09
9.914051503e-09
9.945245692e-09
9.979922396e-09
1.001827807e-08
1.006050624e-08
1.010679246e-08
1.015730836e-08
1.021220445e-08
1.027160121e-08
1.033557804e-08
1.040415942e-08
1.047729767e-08
1.055485125e-08
1.063655756e-08
1.072199868e-08
1.081055831e-08
1.090136758e-08
1.099323679e-08
1.10845697e-08
1.117325601e-08
1.125653674e-08
1.133083666e-08
1.139155674e-08
1.143281962e-08
1.14471616e-08
1.142516766e-08
1.135505228e-08
1.122220104e-08
1.100870967e-08
1.069298859e-08
1.024954676e-08
9.649143338e-09
8.85955572e-09
7.847818137e-09
6.584156653e-09
5.052203271e-09
3.260240042e-09
1.263519241e-09
9.799690537e-09
9.801432894e-09
9.80576056e-09
9.812759243e-09
9.822246391e-09
9.834210418e-09
9.848796611e-09
9.86617578e-09
9.886503129e-09
9.909940077e-09
9.936671937e-09
9.966906611e-09
1.000086798e-08
1.003879256e-08
1.008092847e-08
1.012753381e-08
1.017887391e-08
1.023521754e-08
1.029683252e-08
1.036398018e-08
1.043690837e-08
1.051584257e-08
1.060097435e-08
1.069244669e-08
1.0790335e-08
1.089462268e-08
1.100516972e-08
1.1121672e-08
1.124360889e-08
1.137017546e-08
1.150019493e-08
1.163200547e-08
1.176331389e-08
1.189100678e-08
1.201090687e-08
1.211745993e-08
1.22033344e-08
1.225891453e-08
1.227166872e-08
1.222538269e-08
1.209927284e-08
1.186703111e-08
1.149596758e-08
1.094642225e-08
1.017186569e-08
9.119949963e-09
7.733915564e-09
5.96326367e-09
3.765930755e-09
1.198231741e-09
9.846034358e-09
9.848082089e-09
9.853168234e-09
9.861390936e-09
9.872530497e-09
9.886566628e-09
9.903662688e-09
9.924011709e-09
9.947788453e-09
9.975175659e-09
1.000638562e-08
1.004165957e-08
1.0081261e-08
1.012547284e-08
1.017459767e-08
1.022895742e-08
1.028889198e-08
1.035475696e-08
1.042692111e-08
1.050576288e-08
1.059166593e-08
1.068501296e-08
1.078617751e-08
1.089551291e-08
1.10133376e-08
1.113991549e-08
1.127542985e-08
1.141994849e-08
1.157337751e-08
1.173539965e-08
1.190539226e-08
1.208231795e-08
1.226457874e-08
1.2449821e-08
1.26346742e-08
1.281440041e-08
1.29824232e-08
1.31296942e-08
1.324384349e-08
1.330804607e-08
1.3299543e-08
1.318775167e-08
1.293213785e-08
1.247988316e-08
1.176532871e-08
1.070949327e-08
9.227765343e-09
7.233410458e-09
4.617113197e-09
1.374365531e-09
9.888075651e-09
9.890398466e-09
9.896167836e-09
9.905493461e-09
9.918122908e-09
9.934029029e-09
9.953392652e-09
9.9764283e-09
1.000333014e-08
1.003430226e-08
1.006958382e-08
1.010944913e-08
1.015420091e-08
1.020416824e-08
1.025970789e-08
1.032120548e-08
1.038907554e-08
1.046376103e-08
1.054573274e-08
1.063548831e-08
1.073355062e-08
1.084046497e-08
1.095679489e-08
1.108311587e-08
1.122000627e-08
1.136803438e-08
1.152774012e-08
1.169960946e-08
1.188403887e-08
1.208128598e-08
1.229140151e-08
1.251413522e-08
1.274880603e-08
1.29941222e-08
1.324793168e-08
1.350687392e-08
1.376589148e-08
1.401753933e-08
1.425100023e-08
1.445066313e-08
1.45940629e-08
1.464882265e-08
1.456834163e-08
1.428511703e-08
1.370437607e-08
1.269100348e-08
1.109030372e-08
8.699757979e-09
5.421965959e-09
1.224971375e-09
9.925236236e-09
9.927801098e-09
9.934171617e-09
9.944467934e-09
9.95840937e-09
9.975963479e-09
9.997327373e-09
1.002273561e-08
1.005240081e-08
1.008654753e-08
1.012544054e-08
1.016938563e-08
1.021872295e-08
1.027382557e-08
1.033510211e-08
1.040299924e-08
1.047800329e-08
1.056064157e-08
1.065148388e-08
1.075114421e-08
1.086028215e-08
1.09796039e-08
1.110986258e-08
1.125185741e-08
1.140643136e-08
1.157446623e-08
1.17568743e-08
1.195458474e-08
1.216852272e-08
1.239957807e-08
1.264855894e-08
1.291612426e-08
1.320268588e-08
1.350826711e-08
1.383229853e-08
1.417332248e-08
1.452856323e-08
1.489329632e-08
1.525991236e-08
1.561650048e-08
1.59446646e-08
1.621600318e-08
1.638641693e-08
1.638560922e-08
1.610098435e-08
1.53364509e-08
1.379057471e-08
1.084298082e-08
6.027411738e-09
-1.779784877e-09
9.95700743e-09
9.959778666e-09
9.966661721e-09
9.977785829e-09
9.992846635e-09
1.001180771e-08
1.003488069e-08
1.006231805e-08
1.009434915e-08
1.013121721e-08
1.017321032e-08
1.02206629e-08
1.02739491e-08
1.033348212e-08
1.039971788e-08
1.047315896e-08
1.055435758e-08
1.064391873e-08
1.074250382e-08
1.085083495e-08
1.096969951e-08
1.109995497e-08
1.124253396e-08
1.139844921e-08
1.156879836e-08
1.17547679e-08
1.195763583e-08
1.217877184e-08
1.241963366e-08
1.268175739e-08
1.296673854e-08
1.327619921e-08
1.36117344e-08
1.39748271e-08
1.436671707e-08
1.478820028e-08
1.523932429e-08
1.571892587e-08
1.622392651e-08
1.674824796e-08
1.728111926e-08
1.780434299e-08
1.828778694e-08
1.868105936e-08
1.889871094e-08
1.878115268e-08
1.803433672e-08
1.588388463e-08
1.111325157e-08
-2.749653799e-09
9.982955568e-09
9.985895106e-09
9.99319612e-09
1.000499539e-08
1.002096953e-08
1.004107921e-08
1.006554836e-08
1.009464459e-08
1.012861161e-08
1.01677087e-08
1.021224396e-08
1.026257634e-08
1.031910922e-08
1.038229028e-08
1.045261623e-08
1.053063786e-08
1.061696443e-08
1.071226835e-08
1.081729082e-08
1.093284848e-08
1.105984093e-08
1.11992592e-08
1.135219526e-08
1.151985255e-08
1.170355771e-08
1.190477329e-08
1.212511142e-08
1.236634788e-08
1.263043624e-08
1.291952086e-08
1.323594715e-08
1.358226643e-08
1.39612312e-08
1.437577449e-08