/*--------------------------------*- C++ -*----------------------------------*\
| =========                 |                                                 |
| \\      /  F ield         | foam-extend: Open Source CFD                    |
|  \\    /   O peration     | Version:     4.1                                |
|   \\  /    A nd           | Web:         http://www.foam-extend.org         |
|    \\/     M anipulation  |                                                 |
\*---------------------------------------------------------------------------*/
FoamFile
{
    version     2.0;
    format      ascii;
    class       surfaceScalarField;
    location    "30000";
    object      phi;
}
// * * * * * * * * * * * * * * * * * * * * * * * * * * * * * * * * * * * * * //

dimensions      [0 3 -1 0 0 0 0];

internalField   nonuniform List<scalar> 
31542
(
1.062573939e-07
3.072606141e-09
1.006330568e-07
5.62433705e-09
9.414140812e-08
6.491648691e-09
8.737404119e-08
6.767366925e-09
8.061144743e-08
6.76259376e-09
7.411205432e-08
6.499393105e-09
6.804890106e-08
6.063153263e-09
6.251638228e-08
5.532518782e-09
5.755924083e-08
4.95714145e-09
5.318731757e-08
4.371923269e-09
4.938590592e-08
3.80141165e-09
4.612219999e-08
3.263705927e-09
4.335154623e-08
2.770653759e-09
4.102323979e-08
2.328306438e-09
3.908482987e-08
1.938409921e-09
3.748502531e-08
1.599804565e-09
3.617559517e-08
1.309430139e-09
3.511252197e-08
1.063073212e-09
3.425657672e-08
8.559452609e-10
3.357347555e-08
6.831011804e-10
3.303375605e-08
5.397195005e-10
3.261247435e-08
4.212817032e-10
3.22887927e-08
3.236816511e-10
3.204550338e-08
2.432893237e-10
3.186849457e-08
1.770087978e-10
3.174618098e-08
1.223135849e-10
3.166973735e-08
7.644363165e-11
3.163244643e-08
3.729092475e-11
3.163055939e-08
1.887043589e-12
3.165613749e-08
-2.55780929e-11
3.17068507e-08
-5.071319921e-11
3.177971944e-08
-7.28687403e-11
3.187218517e-08
-9.246572313e-11
3.198219905e-08
-1.100138726e-10
3.210805902e-08
-1.258599786e-10
3.224818835e-08
-1.40129327e-10
3.24013364e-08
-1.531480548e-10
3.256638883e-08
-1.650524306e-10
3.274207708e-08
-1.756882447e-10
3.29270209e-08
-1.849438265e-10
3.311983757e-08
-1.928166632e-10
3.331912213e-08
-1.99284563e-10
3.352341328e-08
-2.042911581e-10
3.373119088e-08
-2.07777597e-10
3.394088329e-08
-2.096924209e-10
3.415087187e-08
-2.099885795e-10
3.435949507e-08
-2.086232095e-10
3.456505527e-08
-2.055602084e-10
3.476582712e-08
-2.007718456e-10
-1.942392964e-10
3.496006642e-08
1.113824837e-07
1.020122472e-09
1.139962128e-07
3.010607912e-09
1.160909109e-07
4.396950555e-09
1.174776839e-07
5.380593919e-09
1.181162517e-07
6.124025966e-09
1.18002328e-07
6.613316873e-09
1.17229412e-07
6.836069205e-09
1.159257658e-07
6.836164982e-09
1.142178487e-07
6.665058566e-09
1.122236641e-07
6.366107887e-09
1.100481678e-07
5.976907944e-09
1.077799227e-07
5.531950961e-09
1.054904701e-07
5.060106395e-09
1.032353713e-07
4.583405215e-09
1.010558403e-07
4.117940926e-09
9.898085077e-08
3.674794123e-09
9.702930616e-08
3.260974737e-09
9.521212467e-08
2.880254695e-09
9.353413705e-08
2.533932875e-09
9.199571106e-08
2.22152716e-09
9.05940732e-08
1.941357352e-09
8.932434714e-08
1.691007769e-09
8.818034714e-08
1.46768165e-09
8.715517328e-08
1.268463194e-09
8.624170668e-08
1.090475401e-09
8.543307222e-08
9.309480417e-10
8.472220152e-08
7.873143252e-10
8.410212646e-08
6.573659822e-10
8.356460499e-08
5.394085046e-10
8.310653484e-08
4.324920476e-10
8.272129844e-08
3.345231923e-10
8.240399177e-08
2.444379244e-10
8.215004356e-08
1.614824851e-10
8.195510131e-08
8.492838289e-11
8.181531942e-08
1.392191738e-11
8.172636844e-08
-5.117833595e-11
8.168510628e-08
-1.118858962e-10
8.168822484e-08
-1.681709859e-10
8.173185295e-08
-2.193163461e-10
8.18125139e-08
-2.656047734e-10
8.192692167e-08
-3.072244325e-10
8.207185474e-08
-3.442176232e-10
8.224414605e-08
-3.765824547e-10
8.244067676e-08
-4.043082988e-10
8.265836135e-08
-4.273770047e-10
8.289413742e-08
-4.457646455e-10
8.314496082e-08
-4.594466103e-10
8.340780256e-08
-4.684019595e-10
8.367964586e-08
-4.726151486e-10
-4.720788094e-10
8.395748538e-08
1.096502052e-07
6.999173132e-10
1.107431378e-07
1.917675308e-09
1.12213264e-07
2.926824284e-09
1.138804644e-07
3.713393565e-09
1.156552724e-07
4.349217976e-09
1.174101127e-07
4.858476513e-09
1.190202354e-07
5.225946551e-09
1.204054367e-07
5.450963629e-09
1.215216965e-07
5.548798857e-09
1.223512224e-07
5.536581917e-09
1.228973216e-07
5.430808822e-09
1.231800155e-07
5.249257037e-09
1.232297787e-07
5.010343151e-09
1.230818493e-07
4.731334589e-09
1.227724816e-07
4.427308639e-09
1.223364674e-07
4.110808405e-09
1.218056633e-07
3.791778853e-09
1.212082006e-07
3.477717342e-09
1.205682121e-07
3.173921385e-09
1.199059076e-07
2.883831621e-09
1.192378591e-07
2.609405929e-09
1.185773937e-07
2.351473159e-09
1.179350323e-07
2.110043058e-09
1.173189309e-07
1.884564569e-09
1.167352752e-07
1.674131095e-09
1.161885786e-07
1.477644643e-09
1.156819501e-07
1.293942779e-09
1.152174204e-07
1.121895718e-09
1.147963554e-07
9.604735676e-10
1.14419998e-07
8.088494525e-10
1.140883191e-07
6.662020201e-10
1.138010153e-07
5.317417696e-10
1.135576039e-07
4.048939359e-10
1.133573144e-07
2.852177969e-10
1.131987877e-07
1.724486323e-10
1.130807194e-07
6.688996856e-11
1.130010969e-07
-3.2263364e-11
1.129594417e-07
-1.265157604e-10
1.129534033e-07
-2.132779667e-10
1.129815777e-07
-2.937792478e-10
1.130423339e-07
-3.679806121e-10
1.13133902e-07
-4.35785746e-10
1.132544379e-07
-4.971182927e-10
1.134020121e-07
-5.518824971e-10
1.135745989e-07
-5.999638507e-10
1.137700792e-07
-6.412449948e-10
1.139862491e-07
-6.756164113e-10
1.142208299e-07
-7.029827805e-10
1.144714742e-07
-7.232595133e-10
-7.363784609e-10
1.147357739e-07
1.095681141e-07
4.61803194e-10
1.101010973e-07
1.384692173e-09
1.10830668e-07
2.197253536e-09
1.116835976e-07
2.860463984e-09
1.126467631e-07
3.386052438e-09
1.137098764e-07
3.795363218e-09
1.148401635e-07
4.095659505e-09
1.159984779e-07
4.292649183e-09
1.171489225e-07
4.39835425e-09
1.182591094e-07
4.426395064e-09
1.193012914e-07
4.388626764e-09
1.20254706e-07
4.295842426e-09
1.211064152e-07
4.158634031e-09
1.218506086e-07
3.987141092e-09
1.224874251e-07
3.790492203e-09
1.230216248e-07
3.576608681e-09
1.234612235e-07
3.352180108e-09
1.238162549e-07
3.122685943e-09
1.240977346e-07
2.89244167e-09
1.24316872e-07
2.664694234e-09
1.244845178e-07
2.441760141e-09
1.246108096e-07
2.225181425e-09
1.247049718e-07
2.015880775e-09
1.247752299e-07
1.814306525e-09
1.248287988e-07
1.620562219e-09
1.248719263e-07
1.434517124e-09
1.249099733e-07
1.255895797e-09
1.249475126e-07
1.08435635e-09
1.249884281e-07
9.195580888e-10
1.250360544e-07
7.61223206e-10
1.250931573e-07
6.090990975e-10
1.251619857e-07
4.629133727e-10
1.252444119e-07
3.224677477e-10
1.253419457e-07
1.876839699e-10
1.254554918e-07
5.890253286e-11
1.255862399e-07
-6.385816733e-11
1.257348863e-07
-1.809096702e-10
1.259007978e-07
-2.924272752e-10
1.260852408e-07
-3.977210136e-10
1.262881756e-07
-4.967140779e-10
1.265094879e-07
-5.892928793e-10
1.267489314e-07
-6.752292094e-10
1.27006075e-07
-7.54261938e-10
1.272803206e-07
-8.261281013e-10
1.275709239e-07
-8.905671501e-10
1.278770048e-07
-9.473258684e-10
1.281975533e-07
-9.961649171e-10
1.285314344e-07
-1.036863849e-09
1.288773985e-07
-1.06922364e-09
-1.093070006e-09
1.2923409e-07
1.094430138e-07
3.487893986e-10
1.097740153e-07
1.053690662e-09
1.102732195e-07
1.698049393e-09
1.108871988e-07
2.246484596e-09
1.115786189e-07
2.694632383e-09
1.123240321e-07
3.049949977e-09
1.131021844e-07
3.317507249e-09
1.138940372e-07
3.50079643e-09
1.146856569e-07
3.606734466e-09
1.154668571e-07
3.64519493e-09
1.162291247e-07
3.626359175e-09
1.169652166e-07
3.559750499e-09
1.176694908e-07
3.454359822e-09
1.183380598e-07
3.318572063e-09
1.189686874e-07
3.15986464e-09
1.195606441e-07
2.984651994e-09
1.20114524e-07
2.798300141e-09
1.206320132e-07
2.605196784e-09
1.211156259e-07
2.408828969e-09
1.215684461e-07
2.211874026e-09
1.219938978e-07
2.016308454e-09
1.223955542e-07
1.823524965e-09
1.227769885e-07
1.634446488e-09
1.231416637e-07
1.449631334e-09
1.234928589e-07
1.26936709e-09
1.238336241e-07
1.093751864e-09
1.241667565e-07
9.227634126e-10
1.244947939e-07
7.563189969e-10
1.248200308e-07
5.943211271e-10
1.251445641e-07
4.366899571e-10
1.254702581e-07
2.834051365e-10
1.257987338e-07
1.34437635e-10
1.261311262e-07
-9.92462419e-12
1.264688387e-07
-1.500285912e-10
1.268132393e-07
-2.854980834e-10
1.271658556e-07
-4.164743878e-10
1.275275939e-07
-5.426479992e-10
1.278988579e-07
-6.636912537e-10
1.282803752e-07
-7.792383623e-10
1.286725501e-07
-8.888890053e-10
1.290755615e-07
-9.923042284e-10
1.294894566e-07
-1.089124363e-09
1.299141565e-07
-1.178961786e-09
1.303494548e-07
-1.261426475e-09
1.307950257e-07
-1.336137986e-09
1.312504285e-07
-1.402728653e-09
1.317151112e-07
-1.460847655e-09
1.321884138e-07
-1.510166481e-09
1.326695739e-07
-1.550383663e-09
-1.581228266e-09
1.331577321e-07
1.094078182e-07
2.709712292e-10
1.096461372e-07
8.153716038e-10
1.100197816e-07
1.324404981e-09
1.10493202e-07
1.773064265e-09
1.110365092e-07
2.151325125e-09
1.116276725e-07
2.458786734e-09
1.122481828e-07
2.69699692e-09
1.128813263e-07
2.867652923e-09
1.135136301e-07
2.974430706e-09
1.141354273e-07
3.023397701e-09
1.147400764e-07
3.021710043e-09
1.153232335e-07
2.976593431e-09
1.158825042e-07
2.895089068e-09
1.164171225e-07
2.783953817e-09
1.169275441e-07
2.649443054e-09
1.174150826e-07
2.497113477e-09
1.178816384e-07
2.331744347e-09
1.183294934e-07
2.15734176e-09
1.187611448e-07
1.977177531e-09
1.191791712e-07
1.793847674e-09
1.195861303e-07
1.609349324e-09
1.19984486e-07
1.42516929e-09
1.203765577e-07
1.24237481e-09
1.207644897e-07
1.061699364e-09
1.211502351e-07
8.836216651e-10
1.215355513e-07
7.084356077e-10
1.219220053e-07
5.363094576e-10
1.223109828e-07
3.673415466e-10
1.227037101e-07
2.015937774e-10
1.231013696e-07
3.903048212e-11
1.235048512e-07
-1.200765168e-10
1.239150954e-07
-2.758065242e-10
1.243332142e-07
-4.280433849e-10
1.247598507e-07
-5.76665171e-10
1.251956802e-07
-7.213275577e-10
1.256409881e-07
-8.617822683e-10
1.260960786e-07
-9.977384849e-10
1.26561229e-07
-1.128841675e-09
1.270366504e-07
-1.254659772e-09
1.275224627e-07
-1.374701314e-09
1.280186544e-07
-1.488495967e-09
1.285251114e-07
-1.595581285e-09
1.290416311e-07
-1.695481531e-09
1.295679195e-07
-1.787714871e-09
1.30103588e-07
-1.87180644e-09
1.306481551e-07
-1.947295808e-09
1.312010497e-07
-2.013742204e-09
1.317616134e-07
-2.070730236e-09
1.323291052e-07
-2.11787541e-09
-2.154828543e-09
1.329027055e-07
1.093888283e-07
2.121428897e-10
1.09565509e-07
6.386909871e-10
1.098471458e-07
1.04276811e-09
1.102134631e-07
1.406746953e-09
1.106445091e-07
1.720279217e-09
1.111234866e-07
1.979809187e-09
1.116356421e-07
2.184841429e-09
1.121672789e-07
2.336016068e-09
1.127063831e-07
2.435326513e-09
1.132433786e-07
2.486402245e-09
1.137711175e-07
2.493971121e-09
1.14284539e-07
2.463171933e-09
1.147804147e-07
2.399213346e-09
1.152571375e-07
2.307231053e-09
1.157144486e-07
2.192131943e-09
1.161531319e-07
2.058430174e-09
1.165747327e-07
1.910143563e-09
1.169813178e-07
1.750756618e-09
1.173752732e-07
1.583222176e-09
1.177591367e-07
1.409984156e-09
1.181354684e-07
1.233017674e-09
1.185067559e-07
1.053881768e-09
1.188753495e-07
8.737811534e-10
1.192434214e-07
6.936275206e-10
1.196129443e-07
5.140987357e-10
1.199856861e-07
3.356938035e-10
1.203632198e-07
1.587757779e-10
1.207469659e-07
-1.640450547e-11
1.211381235e-07
-1.89563893e-10
1.215376883e-07
-3.605342345e-10
1.219466618e-07
-5.290500832e-10
1.223657829e-07
-6.949275877e-10
1.227956648e-07
-8.579252889e-10
1.232367624e-07
-1.017762774e-09
1.236895441e-07
-1.174109288e-09
1.241543488e-07
-1.326586959e-09
1.246313969e-07
-1.474786541e-09
1.251207969e-07
-1.61824175e-09
1.256225678e-07
-1.756430651e-09
1.261366649e-07
-1.888798361e-09
1.266629532e-07
-2.014784324e-09
1.272011975e-07
-2.133825612e-09
1.277510667e-07
-2.245350653e-09
1.283121355e-07
-2.348783729e-09
1.288838853e-07
-2.443556213e-09
1.294657056e-07
-2.529116065e-09
1.300568982e-07
-2.604934812e-09
1.306566819e-07
-2.670513959e-09
1.312641976e-07
-2.725391166e-09
-2.769145561e-09
1.318785147e-07
1.093749497e-07
1.671931823e-10
1.09510275e-07
5.033656712e-10
1.09729012e-07
8.240311057e-10
1.10019227e-07
1.116532025e-09
1.103672741e-07
1.372232055e-09
1.107602309e-07
1.586852363e-09
1.111863341e-07
1.758738245e-09
1.116347849e-07
1.887565341e-09
1.120959602e-07
1.974151172e-09
1.125618191e-07
2.020543289e-09
1.130260187e-07
2.029771611e-09
1.134837766e-07
2.00541399e-09
1.139317118e-07
1.951278111e-09
1.143677147e-07
1.87122815e-09
1.147907948e-07
1.769051858e-09
1.152008925e-07
1.648332542e-09
1.155986839e-07
1.51235217e-09
1.159854013e-07
1.364039193e-09
1.163626728e-07
1.20595062e-09
1.167323837e-07
1.040273283e-09
1.170965581e-07
8.688433201e-10
1.174572658e-07
6.931740384e-10
1.178165529e-07
5.144940236e-10
1.181763894e-07
3.337910423e-10
1.185386192e-07
1.518689186e-10
1.18904977e-07
-3.066397526e-11
1.192770355e-07
-2.132826726e-10
1.196561736e-07
-3.955425887e-10
1.200436632e-07
-5.770534964e-10
1.204406078e-07
-7.574788936e-10
1.208480278e-07
-9.364700939e-10
1.212667725e-07
-1.113672262e-09
1.216975635e-07
-1.288716279e-09
1.22141003e-07
-1.461202254e-09
1.225975807e-07
-1.630687059e-09
1.2306767e-07
-1.796676243e-09
1.235515197e-07
-1.958636221e-09
1.240492704e-07
-2.115992493e-09
1.245609702e-07
-2.268130448e-09
1.250865757e-07
-2.414403779e-09
1.256259373e-07
-2.554145956e-09
1.261787909e-07
-2.686679205e-09
1.267447597e-07
-2.811319452e-09
1.273233588e-07
-2.927382845e-09
1.27913998e-07
-3.034195382e-09
1.285159847e-07
-3.131102786e-09
1.29128529e-07
-3.21747917e-09
1.297507499e-07
-3.29273486e-09
1.303816824e-07
-3.356323618e-09
-3.407748922e-09
1.310202858e-07
1.093655738e-07
1.3161941e-10
1.094727978e-07
3.961416218e-10
1.096473976e-07
6.494313704e-10
1.098817189e-07
8.822106542e-10
1.101663411e-07
1.087609838e-09
1.104916915e-07
1.26150204e-09
1.10848739e-07
1.401690725e-09
1.112291001e-07
1.507204225e-09
1.116251627e-07
1.578088544e-09
1.120303263e-07
1.615379735e-09
1.124391556e-07
1.620942265e-09
1.128473774e-07
1.597192251e-09
1.132518038e-07
1.546851691e-09
1.136502472e-07
1.472784708e-09
1.140414207e-07
1.377878384e-09
1.144248152e-07
1.264938083e-09
1.148005649e-07
1.136602434e-09
1.151693176e-07
9.952865306e-10
1.155321118e-07
8.431564293e-10
1.158902704e-07
6.821146863e-10
1.162453078e-07
5.138059139e-10
1.165988514e-07
3.396304505e-10
1.169525499e-07
1.607954541e-10
1.173081238e-07
-2.178286867e-11
1.176671286e-07
-2.071358689e-10
1.180311427e-07
-3.946780499e-10
1.184016101e-07
-5.837500886e-10
1.187798899e-07
-7.7382238e-10
1.19167242e-07
-9.64405602e-10
1.19564798e-07
-1.155034852e-09
1.199735797e-07
-1.345251792e-09
1.203944951e-07
-1.534587681e-09
1.208283345e-07
-1.722555635e-09
1.212757692e-07
-1.908636953e-09
1.217373534e-07
-2.092271271e-09
1.222135301e-07
-2.272852989e-09
1.227046279e-07
-2.449734058e-09
1.232108609e-07
-2.622225398e-09
1.237323285e-07
-2.789598069e-09
1.242690133e-07
-2.95108857e-09
1.248207755e-07
-3.105908184e-09
1.253873496e-07
-3.25325327e-09
1.259683441e-07
-3.392314036e-09
1.265632445e-07
-3.522283166e-09
1.27171415e-07
-3.642365926e-09
1.277921033e-07
-3.751791134e-09
1.284244459e-07
-3.849821755e-09
1.290674757e-07
-3.935764665e-09
1.297201316e-07
-4.008979448e-09
-4.068885954e-09
1.303812686e-07
1.093588469e-07
1.02772502e-10
1.094457117e-07
3.092768707e-10
1.095877715e-07
5.073714792e-10
1.097799226e-07
6.900596467e-10
1.100156513e-07
8.518810817e-10
1.102879899e-07
9.891634038e-10
1.105900742e-07
1.099606463e-09
1.10915364e-07
1.181914434e-09
1.11257797e-07
1.235655567e-09
1.116119751e-07
1.261201636e-09
1.119733111e-07
1.259606206e-09
1.123380787e-07
1.232424642e-09
1.127033916e-07
1.18153888e-09
1.130671545e-07
1.109021726e-09
1.134280002e-07
1.017032713e-09
1.137852084e-07
9.077298998e-10
1.141386123e-07
7.831984818e-10
1.144885055e-07
6.453933524e-10
1.148355491e-07
4.96112897e-10
1.151806905e-07
3.36973211e-10
1.15525041e-07
1.694554907e-10
1.158699894e-07
-5.318001771e-12
1.162168006e-07
-1.860157533e-10
1.165669103e-07
-3.718925352e-10
1.169217865e-07
-5.620120608e-10
1.172827838e-07
-7.556753633e-10
1.176512588e-07
-9.522250926e-10
1.180284955e-07
-1.151059037e-09
1.184157025e-07
-1.351612614e-09
1.188140056e-07
-1.553337944e-09
1.192244409e-07
-1.755687137e-09
1.1964795e-07
-1.958096764e-09
1.200853712e-07
-2.15997689e-09
1.205374357e-07
-2.360701447e-09
1.210047653e-07
-2.559600824e-09
1.214878701e-07
-2.755957826e-09
1.21987143e-07
-2.949006937e-09
1.225028534e-07
-3.13793579e-09
1.230351435e-07
-3.321888213e-09
1.23584025e-07
-3.499970026e-09
1.241493746e-07
-3.671257736e-09
1.247309301e-07
-3.834808783e-09
1.253282882e-07
-3.989672183e-09
1.259409048e-07
-4.134899719e-09
1.265680971e-07
-4.269558233e-09
1.272090486e-07
-4.392742672e-09
1.278628159e-07
-4.503589036e-09
1.285283377e-07
-4.601286531e-09
1.292044468e-07
-4.685088501e-09
-4.75432176e-09
1.298898826e-07
1.093537935e-07
7.89790005e-11
1.094254082e-07
2.376621712e-10
1.095429124e-07
3.898672726e-10
1.097027954e-07
5.301766428e-10
1.099004599e-07
6.542165831e-10
1.101307953e-07
7.588280551e-10
1.103885832e-07
8.418185643e-10
1.106687308e-07
9.017667894e-10
1.109664346e-07
9.379517943e-10
1.112773332e-07
9.503030504e-10
1.115976276e-07
9.39311736e-10
1.119241444e-07
9.059078598e-10
1.122543468e-07
8.513364977e-10
1.125863165e-07
7.770520098e-10
1.129187181e-07
6.84631151e-10
1.132507498e-07
5.756981792e-10
1.135820838e-07
4.518645229e-10
1.139127976e-07
3.146795297e-10
1.1424325e-07
1.656604335e-10
1.14574268e-07
5.955251426e-12
1.149065686e-07
-1.628451554e-10
1.152412261e-07
-3.399754792e-10
1.155794886e-07
-5.242782678e-10
1.159225162e-07
-7.149201139e-10
1.162716028e-07
-9.11098688e-10
1.16628014e-07
-1.112086545e-09
1.169930075e-07
-1.317218565e-09
1.173678136e-07
-1.525865107e-09
1.177536172e-07
-1.737416255e-09
1.181515452e-07
-1.951265957e-09
1.18562655e-07
-2.166796881e-09
1.189879251e-07
-2.383366926e-09
1.194282465e-07
-2.600298293e-09
1.198844139e-07
-2.816868774e-09
1.20357118e-07
-3.032304942e-09
1.20846938e-07
-3.24577786e-09
1.213543328e-07
-3.456401759e-09
1.218796326e-07
-3.66323554e-09
1.22423031e-07
-3.86528664e-09
1.229845784e-07
-4.061517374e-09
1.235641745e-07
-4.250853872e-09
1.24161563e-07
-4.432197248e-09
1.247763272e-07
-4.604436393e-09
1.254078895e-07
-4.766462082e-09
1.260555135e-07
-4.91718221e-09
1.267183086e-07
-5.055537779e-09
1.273952384e-07
-5.180518894e-09
1.280851319e-07
-5.291180011e-09
1.287866972e-07
-5.386653753e-09
-5.466162658e-09
1.294985381e-07
1.093499049e-07
5.907407134e-11
1.094098004e-07
1.777667312e-10
1.095083216e-07
2.913459946e-10
1.096429787e-07
3.955195991e-10
1.098104565e-07
4.867387348e-10
1.100069768e-07
5.623078204e-10
1.1022858e-07
6.202153669e-10
1.104713199e-07
6.590269039e-10
1.107314103e-07
6.778613782e-10
1.110053508e-07
6.763625387e-10
1.112900279e-07
6.546345681e-10
1.115827793e-07
6.131565275e-10
1.118814216e-07
5.526941539e-10
1.121842532e-07
4.742204221e-10
1.12490038e-07
3.788463389e-10
1.127979731e-07
2.677630706e-10
1.131076401e-07
1.421975681e-10
1.13419139e-07
3.180598948e-12
1.13732516e-07
-1.477165125e-10
1.140482834e-07
-3.098122108e-10
1.143673117e-07
-4.818734503e-10
1.146903709e-07
-6.630346756e-10
1.150185114e-07
-8.524187033e-10
1.153528145e-07
-1.049223235e-09
1.156944329e-07
-1.252717103e-09
1.160445597e-07
-1.462213389e-09
1.164044011e-07
-1.677059927e-09
1.167751586e-07
-1.89662258e-09
1.171580123e-07
-2.120269972e-09
1.175541059e-07
-2.347359568e-09
1.179645332e-07
-2.577224214e-09
1.18390326e-07
-2.809159706e-09
1.188324418e-07
-3.042414043e-09
1.192917516e-07
-3.276178658e-09
1.197690284e-07
-3.509581696e-09
1.202649342e-07
-3.741683717e-09
1.207800087e-07
-3.971476199e-09
1.213146561e-07
-4.197882935e-09
1.218691337e-07
-4.419764261e-09
1.224435405e-07
-4.63592417e-09
1.23037807e-07
-4.845120398e-09
1.236516871e-07
-5.046077337e-09
1.242847521e-07
-5.237501388e-09
1.249363883e-07
-5.41809832e-09
1.256057983e-07
-5.586592204e-09
1.262920059e-07
-5.741745339e-09
1.269938654e-07
-5.88237839e-09
1.277100752e-07
-6.007389784e-09
1.284391948e-07
-6.115773399e-09
-6.206633633e-09
1.291796658e-07
1.093468392e-07
4.22348784e-11
1.093975021e-07
1.271037935e-10
1.094810009e-07
2.078471936e-10
1.095955297e-07
2.809907953e-10
1.097386599e-07
3.436085524e-10
1.099075756e-07
3.933920908e-10
1.100992669e-07
4.28524096e-10
1.10310678e-07
4.476158046e-10
1.105388294e-07
4.497099422e-10
1.107809227e-07
4.342692984e-10
1.110344263e-07
4.011309321e-10
1.112971362e-07
3.504466817e-10
1.115672092e-07
2.826210754e-10
1.118431763e-07
1.982533716e-10
1.121239429e-07
9.807971436e-11
1.124088029e-07
-1.709695875e-11
1.126973252e-07
-1.463247044e-10
1.129892936e-07
-2.88787784e-10
1.132850872e-07
-4.435100592e-10
1.13584979e-07
-6.09704037e-10
1.138896343e-07
-7.865287343e-10
1.141997998e-07
-9.732001895e-10
1.145163743e-07
-1.168993186e-09
1.148403685e-07
-1.373217451e-09
1.15172871e-07
-1.585219606e-09
1.15515028e-07
-1.804370439e-09
1.158680209e-07
-2.03005283e-09
1.162330476e-07
-2.261649255e-09
1.166113061e-07
-2.498528428e-09
1.170039785e-07
-2.740032014e-09
1.17412216e-07
-2.985461727e-09
1.178371235e-07
-3.234067197e-09
1.182797446e-07
-3.485035117e-09
1.18741046e-07
-3.737480107e-09
1.19221902e-07
-3.990437629e-09
1.197230775e-07
-4.242859293e-09
1.202452123e-07
-4.493610963e-09
1.207888033e-07
-4.741473958e-09
1.213541886e-07
-4.985149567e-09
1.219415315e-07
-5.223267045e-09
1.225508063e-07
-5.454395203e-09
1.231817865e-07
-5.677057547e-09
1.238340358e-07
-5.889750726e-09
1.245069034e-07
-6.090965857e-09
1.251995233e-07
-6.279212154e-09
1.259108201e-07
-6.453042104e-09
1.266395188e-07
-6.61107714e-09
1.273841617e-07
-6.752032618e-09
1.281431291e-07
-6.874740779e-09
-6.978170371e-09
1.289146658e-07
1.093443648e-07
2.787003637e-11
1.093875913e-07
8.387728625e-11
1.094589494e-07
1.364891444e-10
1.095571059e-07
1.828343266e-10
1.096802574e-07
2.204569842e-10
1.098262873e-07
2.473621767e-10
1.099928981e-07
2.619132983e-10
1.101777218e-07
2.62792182e-10
1.103784169e-07
2.490147819e-10
1.105927567e-07
2.199295544e-10
1.108186998e-07
1.751877807e-10
1.110544434e-07
1.147030987e-10
1.112984606e-07
3.860390788e-11
1.115495146e-07
-5.28006484e-11
1.118066654e-07
-1.590710517e-10
1.120692438e-07
-2.796753717e-10
1.123369205e-07
-4.140014046e-10
1.126095618e-07
-5.614290799e-10
1.128873543e-07
-7.213026456e-10
1.131706259e-07
-8.929755887e-10
1.134599183e-07
-1.075821157e-09
1.13755942e-07
-1.269223839e-09
1.140595428e-07
-1.472593967e-09
1.143716847e-07
-1.685359447e-09
1.14693425e-07
-1.906959897e-09
1.150258937e-07
-2.136839058e-09
1.153702753e-07
-2.374434433e-09
1.157277916e-07
-2.619165599e-09
1.160996847e-07
-2.870421531e-09
1.164872002e-07
-3.127547501e-09
1.168915705e-07
-3.389832082e-09
1.17313998e-07
-3.656494673e-09
1.177556369e-07
-3.926673991e-09
1.182175748e-07
-4.199418032e-09
1.187008132e-07
-4.473675973e-09
1.192062464e-07
-4.748292507e-09
1.197346405e-07
-5.022005107e-09
1.202866113e-07
-5.293444723e-09
1.20862602e-07
-5.561140323e-09
1.214628626e-07
-5.823527647e-09
1.220874298e-07
-6.078962415e-09
1.227361104e-07
-6.325738087e-09
1.234084677e-07
-6.562108071e-09
1.241038138e-07
-6.786311952e-09
1.248212068e-07
-6.996605116e-09
1.255594554e-07
-7.19129074e-09
1.263171312e-07
-7.368752865e-09
1.270925875e-07
-7.527488917e-09
1.278839866e-07
-7.666139893e-09
-7.783516329e-09
1.286893325e-07
1.093423185e-07
1.555152957e-11
1.09379428e-07
4.676780914e-11
1.094407731e-07
7.514407585e-11
1.095253542e-07
9.825316343e-11
1.096318161e-07
1.139951462e-10
1.097585532e-07
1.206250518e-10
1.099038114e-07
1.166550555e-10
1.100657558e-07
1.008478105e-10
1.10242544e-07
7.222652942e-11
1.104324108e-07
3.006279335e-11
1.106337239e-07
-2.612530453e-11
1.108450236e-07
-9.659666506e-11
1.110650575e-07
-1.814299797e-10
1.112928053e-07
-2.805484648e-10
1.115274876e-07
-3.937532673e-10
1.117685649e-07
-5.207526736e-10
1.120157482e-07
-6.611847066e-10
1.122689626e-07
-8.146434822e-10
1.125283548e-07
-9.806948514e-10
1.127942683e-07
-1.158889078e-09
1.130672241e-07
-1.348777022e-09
1.133479082e-07
-1.549907944e-09
1.136371469e-07
-1.761832602e-09
1.139358893e-07
-1.984101923e-09
1.142451909e-07
-2.21626148e-09
1.145661958e-07
-2.457843934e-09
1.149001206e-07
-2.70835923e-09
1.152482381e-07
-2.967283056e-09
1.156118606e-07
-3.234044106e-09
1.159923237e-07
-3.508010621e-09
1.163909683e-07
-3.788476629e-09
1.16809122e-07
-4.074648356e-09
1.172480793e-07
-4.365631294e-09
1.177090797e-07
-4.660418497e-09
1.181932845e-07
-4.957880692e-09
1.187017508e-07
-5.256758863e-09
1.192354057e-07
-5.555659967e-09
1.197950174e-07
-5.853056477e-09
1.203811675e-07
-6.147290431e-09
1.209942225e-07
-6.436582579e-09
1.216343072e-07
-6.719047131e-09
1.223012815e-07
-6.992712412e-09
1.229947209e-07
-7.25554747e-09
1.237139033e-07
-7.505494329e-09
1.244578033e-07
-7.740505151e-09
1.252250957e-07
-7.958583123e-09
1.260141682e-07
-8.157825379e-09
1.268231451e-07
-8.336465802e-09
1.276499204e-07
-8.49291521e-09
-8.62579625e-09
1.284922003e-07
1.093406032e-07
4.948332737e-12
1.093725813e-07
1.478974656e-11
1.094255032e-07
2.222209507e-11
1.094986166e-07
2.513984931e-11
1.095908936e-07
2.171810222e-11
1.097010886e-07
1.043003758e-11
1.098278682e-07
-1.012452058e-11
1.099698231e-07
-4.11070708e-11
1.101254962e-07
-8.344659813e-11
1.102934985e-07
-1.379395189e-10
1.104725271e-07
-2.051538621e-10
1.106614128e-07
-2.85482439e-10
1.108591485e-07
-3.791656359e-10
1.110649113e-07
-4.863113138e-10
1.112780755e-07
-6.069173949e-10
1.114982174e-07
-7.408946646e-10
1.117251192e-07
-8.880864657e-10
1.119587623e-07
-1.048286612e-09
1.121993221e-07
-1.221254657e-09
1.12447159e-07
-1.40672594e-09
1.127028023e-07
-1.60442036e-09
1.129669398e-07
-1.814045374e-09
1.132404037e-07
-2.035296551e-09
1.135241576e-07
-2.267855843e-09
1.138192825e-07
-2.511386349e-09
1.14126963e-07
-2.765524402e-09
1.144484733e-07
-3.029869517e-09
1.147851627e-07
-3.303972492e-09
1.151384406e-07
-3.58732197e-09
1.155097598e-07
-3.879329871e-09
1.159005993e-07
-4.1793161e-09
1.163124439e-07
-4.486493007e-09
1.167467628e-07
-4.799950158e-09
1.172049843e-07
-5.118640027e-09
1.17688469e-07
-5.441365335e-09
1.181984789e-07
-5.766768841e-09
1.187361454e-07
-6.093326448e-09
1.193024336e-07
-6.419344602e-09
1.198981061e-07
-6.742962933e-09
1.205236866e-07
-7.062163103e-09
1.211794241e-07
-7.374784693e-09
1.218652605e-07
-7.678548783e-09
1.225808026e-07
-7.971089538e-09
1.233253019e-07
-8.24999368e-09
1.240976439e-07
-8.512847128e-09
1.248963482e-07
-8.757287433e-09
1.257195827e-07
-8.98105986e-09
1.265651912e-07
-9.182074258e-09
1.274307352e-07
-9.358459226e-09
-9.508609718e-09
1.283135486e-07
1.093391987e-07
-4.250365535e-12
1.093667962e-07
-1.280776605e-11
1.094124931e-07
-2.3474841e-11
1.094757194e-07
-3.808639017e-11
1.095556939e-07
-5.825638549e-11
1.096514995e-07
-8.537555558e-11
1.097620689e-07
-1.206939379e-10
1.098862787e-07
-1.653169347e-10
1.100230258e-07
-2.201936844e-10
1.101712115e-07
-2.861251491e-10
1.103298087e-07
-3.637511522e-10
1.104978925e-07
-4.535661822e-10
1.106746645e-07
-5.559376935e-10
1.108594754e-07
-6.711221934e-10
1.110518394e-07
-7.992813858e-10
1.112514437e-07
-9.404989467e-10
1.114581533e-07
-1.094796117e-09
1.116720122e-07
-1.262145453e-09
1.118932399e-07
-1.442482368e-09
1.121222275e-07
-1.635713558e-09
1.123595301e-07
-1.841722956e-09
1.126058594e-07
-2.060374642e-09
1.128620754e-07
-2.291512562e-09
1.131291772e-07
-2.534957611e-09
1.134082927e-07
-2.790501924e-09
1.137006688e-07
-3.05790049e-09
1.140076597e-07
-3.336860404e-09
1.143307152e-07
-3.627027984e-09
1.146713672e-07
-3.927973973e-09
1.150312145e-07
-4.239177161e-09
1.154119052e-07
-4.560006787e-09
1.158151164e-07
-4.889704197e-09
1.162425305e-07
-5.227364326e-09
1.166958082e-07
-5.571917675e-09
1.171765565e-07
-5.922113623e-09
1.176862937e-07
-6.276506047e-09
1.182264096e-07
-6.633442376e-09
1.187981224e-07
-6.99105735e-09
1.194024323e-07
-7.347272857e-09
1.200400744e-07
-7.699805242e-09
1.207114712e-07
-8.046181455e-09
1.214166876e-07
-8.383765183e-09
1.221553918e-07
-8.709793765e-09
1.229268242e-07
-9.02142612e-09
1.237297783e-07
-9.31580115e-09
1.245625959e-07
-9.590105113e-09
1.254231814e-07
-9.841645307e-09
1.263090334e-07
-1.006792629e-08
1.27217298e-07
-1.026672379e-08
-1.04361506e-08
1.281448389e-07
1.093379741e-07
-1.2224481e-11
1.093617632e-07
-3.659688122e-11
1.094011566e-07
-6.286822135e-11
1.094557242e-07
-9.265402926e-11
1.095248687e-07
-1.274008174e-10
1.096078707e-07
-1.68377618e-10
1.097039162e-07
-2.16739422e-10
1.098121433e-07
-2.735440387e-10
1.099316818e-07
-3.397321253e-10
1.100616738e-07
-4.161171553e-10
1.102013118e-07
-5.033892166e-10
1.103498691e-07
-6.021234284e-10
1.105067228e-07
-7.127914377e-10
1.106713739e-07
-8.357732528e-10
1.108434618e-07
-9.713693105e-10
1.110227758e-07
-1.119812945e-09
1.11209262e-07
-1.281282364e-09
1.114030279e-07
-1.455911264e-09
1.116043431e-07
-1.64379764e-09
1.1181364e-07
-1.845010391e-09
1.120315106e-07
-2.059593572e-09
1.12258704e-07
-2.287568062e-09
1.124961219e-07
-2.528930443e-09
1.127448134e-07
-2.783649183e-09
1.130059697e-07
-3.051658151e-09
1.132809166e-07
-3.332847426e-09
1.135711077e-07
-3.627051466e-09
1.138781145e-07
-3.934034792e-09
1.142036158e-07
-4.253475308e-09
1.145493842e-07
-4.584945506e-09
1.149172692e-07
-4.927891831e-09
1.153091777e-07
-5.281612641e-09
1.157270486e-07
-5.645235301e-09
1.161728241e-07
-6.017693137e-09
1.166484137e-07
-6.397703187e-09
1.171556535e-07
-6.783745885e-09
1.176962592e-07
-7.1740481e-09
1.18271773e-07
-7.566571175e-09
1.18883506e-07
-7.959005824e-09
1.195324767e-07
-8.348775934e-09
1.202193486e-07
-8.73305331e-09
1.209443687e-07
-9.108785323e-09
1.217073119e-07
-9.472737006e-09
1.225074343e-07
-9.82154853e-09
1.233434411e-07
-1.015180793e-08
1.242134737e-07
-1.046013767e-08
1.251151202e-07
-1.074329187e-08
1.260454532e-07
-1.099825928e-08
1.270010947e-07
-1.122236528e-08
-1.141336459e-08
1.279783087e-07