/*--------------------------------*- C++ -*----------------------------------*\
| =========                 |                                                 |
| \\      /  F ield         | foam-extend: Open Source CFD                    |
|  \\    /   O peration     | Version:     4.1                                |
|   \\  /    A nd           | Web:         http://www.foam-extend.org         |
|    \\/     M anipulation  |                                                 |
\*---------------------------------------------------------------------------*/
FoamFile
{
    version     2.0;
    format      ascii;
    class       volVectorField;
    location    "30000";
    object      U;
}
// * * * * * * * * * * * * * * * * * * * * * * * * * * * * * * * * * * * * * //

dimensions      [0 1 -1 0 0 0 0];

internalField   nonuniform List<vector> 
15920
(
(0.0002132447969 5.113684354e-06 0)
(0.0002058717823 1.128895534e-05 0)
(0.0001957867097 1.36954543e-05 0)
(0.0001823009332 1.416788437e-05 0)
(0.0001679495792 1.371210719e-05 0)
(0.0001543840018 1.263590926e-05 0)
(0.0001418672534 1.112394794e-05 0)
(0.00013031772 9.400203548e-06 0)
(0.0001198089381 7.662586322e-06 0)
(0.000110460916 6.03734999e-06 0)
(0.0001022988658 4.592234595e-06 0)
(9.526145335e-05 3.358629046e-06 0)
(8.925599794e-05 2.342546918e-06 0)
(8.418380941e-05 1.531519685e-06 0)
(7.994266918e-05 9.02256396e-07 0)
(7.642865116e-05 4.272207565e-07 0)
(7.354129992e-05 7.875584246e-08 0)
(7.118791018e-05 -1.68693936e-07 0)
(6.928531861e-05 -3.374779299e-07 0)
(6.776026039e-05 -4.463626164e-07 0)
(6.654923082e-05 -5.106440723e-07 0)
(6.559806188e-05 -5.42520003e-07 0)
(6.486122201e-05 -5.515488938e-07 0)
(6.430091926e-05 -5.451018102e-07 0)
(6.388610656e-05 -5.287518363e-07 0)
(6.359111823e-05 -5.06502293e-07 0)
(6.339581228e-05 -4.80579968e-07 0)
(6.328430405e-05 -4.525159757e-07 0)
(6.324761657e-05 -4.240915432e-07 0)
(6.327318898e-05 -4.004247373e-07 0)
(6.335155126e-05 -3.803533553e-07 0)
(6.347628716e-05 -3.619224613e-07 0)
(6.364251478e-05 -3.4484264e-07 0)
(6.384585195e-05 -3.294459027e-07 0)
(6.408253102e-05 -3.158757182e-07 0)
(6.434919e-05 -3.037548371e-07 0)
(6.464304738e-05 -2.931608899e-07 0)
(6.496182775e-05 -2.838936755e-07 0)
(6.530318761e-05 -2.751713553e-07 0)
(6.566447279e-05 -2.665593718e-07 0)
(6.604290057e-05 -2.579844925e-07 0)
(6.643567465e-05 -2.493543979e-07 0)
(6.683993902e-05 -2.404618543e-07 0)
(6.725272068e-05 -2.310726751e-07 0)
(6.767092658e-05 -2.20983046e-07 0)
(6.80913623e-05 -2.100224245e-07 0)
(6.851074512e-05 -1.980465548e-07 0)
(6.892571386e-05 -1.849368168e-07 0)
(6.933284264e-05 -1.706008686e-07 0)
(6.972865825e-05 -1.549720207e-07 0)
(0.0002201173665 5.633561337e-06 0)
(0.0002251683373 1.290907169e-05 0)
(0.0002303498801 1.655155492e-05 0)
(0.0002340527895 1.846682728e-05 0)
(0.0002360002825 1.955881747e-05 0)
(0.000236419754 1.995133498e-05 0)
(0.000235492231 1.96900032e-05 0)
(0.000233379707 1.891815564e-05 0)
(0.0002303122401 1.779394533e-05 0)
(0.0002265521022 1.643980006e-05 0)
(0.0002223360201 1.495048672e-05 0)
(0.0002178571063 1.340566469e-05 0)
(0.0002132713364 1.187087086e-05 0)
(0.0002087041849 1.039562777e-05 0)
(0.0002042524329 9.014034136e-06 0)
(0.0001999859598 7.747132177e-06 0)
(0.0001959517166 6.605450721e-06 0)
(0.0001921785305 5.591337442e-06 0)
(0.0001886813684 4.70113196e-06 0)
(0.0001854648165 3.927113054e-06 0)
(0.0001825259543 3.259109003e-06 0)
(0.0001798567064 2.68574298e-06 0)
(0.0001774456831 2.195352489e-06 0)
(0.0001752795564 1.776637061e-06 0)
(0.0001733441124 1.419093042e-06 0)
(0.0001716250661 1.113244912e-06 0)
(0.000170108578 8.508363429e-07 0)
(0.0001687805716 6.246348983e-07 0)
(0.0001676272791 4.28537672e-07 0)
(0.000166633969 2.564819698e-07 0)
(0.000165792368 1.046635248e-07 0)
(0.0001650923333 -2.966792346e-08 0)
(0.0001645235151 -1.490596154e-07 0)
(0.000164076677 -2.557434617e-07 0)
(0.000163743834 -3.51477697e-07 0)
(0.0001635169549 -4.377042582e-07 0)
(0.0001633885195 -5.156507954e-07 0)
(0.0001633519858 -5.864823284e-07 0)
(0.0001634004289 -6.499917746e-07 0)
(0.0001635265041 -7.059463773e-07 0)
(0.000163723232 -7.543653603e-07 0)
(0.0001639841163 -7.953106158e-07 0)
(0.0001643028559 -8.287945613e-07 0)
(0.0001646731918 -8.547933232e-07 0)
(0.0001650889103 -8.732657041e-07 0)
(0.0001655438589 -8.841611726e-07 0)
(0.0001660319352 -8.874272033e-07 0)
(0.0001665470704 -8.830179753e-07 0)
(0.0001670832201 -8.70899717e-07 0)
(0.0001676343625 -8.510550941e-07 0)
(0.0002187792158 1.460911025e-06 0)
(0.0002200409624 4.369051097e-06 0)
(0.0002226266187 6.980947731e-06 0)
(0.0002259720135 9.310524232e-06 0)
(0.0002295442783 1.137962369e-05 0)
(0.0002331119364 1.307289571e-05 0)
(0.0002365082773 1.429462465e-05 0)
(0.0002395425471 1.504107827e-05 0)
(0.0002420680288 1.535832502e-05 0)
(0.0002440181106 1.530456036e-05 0)
(0.0002453867579 1.494333773e-05 0)
(0.0002462034117 1.434317057e-05 0)
(0.0002465204007 1.357215027e-05 0)
(0.0002464047496 1.26915508e-05 0)
(0.0002459296822 1.175236573e-05 0)
(0.0002451675656 1.07947165e-05 0)
(0.0002441856716 9.848612151e-06 0)
(0.0002430441817 8.935171835e-06 0)
(0.0002417953931 8.06807303e-06 0)
(0.0002404835964 7.2550888e-06 0)
(0.0002391454422 6.499545595e-06 0)
(0.0002378106443 5.801586672e-06 0)
(0.0002365028458 5.15920674e-06 0)
(0.0002352405181 4.569065701e-06 0)
(0.0002340378139 4.02710078e-06 0)
(0.0002329052859 3.528934601e-06 0)
(0.0002318504624 3.070040084e-06 0)
(0.0002308783778 2.64611767e-06 0)
(0.000229992257 2.253461583e-06 0)
(0.0002291943431 1.889893349e-06 0)
(0.0002284860735 1.552415174e-06 0)
(0.0002278673003 1.238191602e-06 0)
(0.0002273369499 9.45074988e-07 0)
(0.0002268936299 6.714086316e-07 0)
(0.0002265354405 4.158887598e-07 0)
(0.0002262597159 1.771367761e-07 0)
(0.0002260631006 -4.504882775e-08 0)
(0.0002259422484 -2.502553908e-07 0)
(0.0002258950239 -4.393689531e-07 0)
(0.0002259180894 -6.130998531e-07 0)
(0.0002260079292 -7.715870167e-07 0)
(0.0002261611211 -9.147481296e-07 0)
(0.0002263741301 -1.042501223e-06 0)
(0.0002266432019 -1.154774397e-06 0)
(0.0002269643725 -1.251479512e-06 0)
(0.0002273334906 -1.332516589e-06 0)
(0.0002277462308 -1.39779079e-06 0)
(0.0002281981074 -1.447223796e-06 0)
(0.0002286844907 -1.480761346e-06 0)
(0.0002292006218 -1.498377772e-06 0)
(0.0002187707813 1.477207431e-06 0)
(0.0002194995912 4.296374612e-06 0)
(0.0002207801559 6.679618245e-06 0)
(0.0002224281947 8.513848165e-06 0)
(0.0002242842631 9.89311884e-06 0)
(0.0002263142871 1.092040128e-05 0)
(0.0002285124009 1.164313271e-05 0)
(0.0002308218388 1.209367012e-05 0)
(0.0002331553293 1.230917379e-05 0)
(0.0002354345454 1.232494905e-05 0)
(0.000237599564 1.217080461e-05 0)
(0.0002396042088 1.187432346e-05 0)
(0.0002414150894 1.14628873e-05 0)
(0.0002430131972 1.096282082e-05 0)
(0.0002443933106 1.039819491e-05 0)
(0.0002455612015 9.790291066e-06 0)
(0.0002465304398 9.157418814e-06 0)
(0.0002473196722 8.514786674e-06 0)
(0.0002479504106 7.874476612e-06 0)
(0.0002484452452 7.245607609e-06 0)
(0.0002488264974 6.634659502e-06 0)
(0.0002491153163 6.045877975e-06 0)
(0.0002493311462 5.481699334e-06 0)
(0.000249491466 4.943158659e-06 0)
(0.000249611712 4.430255838e-06 0)
(0.0002497053224 3.942273874e-06 0)
(0.0002497838638 3.478076293e-06 0)
(0.0002498572187 3.036398249e-06 0)
(0.0002499337856 2.616043866e-06 0)
(0.0002500207202 2.215955888e-06 0)
(0.000250124099 1.834834963e-06 0)
(0.0002502489339 1.471491314e-06 0)
(0.0002503993226 1.125075287e-06 0)
(0.0002505785411 7.949299481e-07 0)
(0.0002507894788 4.808812831e-07 0)
(0.0002510333375 1.832745317e-07 0)
(0.0002513116932 -9.754176436e-08 0)
(0.0002516264117 -3.612888747e-07 0)
(0.0002519770192 -6.086603527e-07 0)
(0.0002523641883 -8.400375506e-07 0)
(0.0002527883718 -1.055226417e-06 0)
(0.0002532492776 -1.25379793e-06 0)
(0.0002537461188 -1.435296654e-06 0)
(0.000254277819 -1.599263446e-06 0)
(0.0002548430401 -1.745226214e-06 0)
(0.0002554401648 -1.872714288e-06 0)
(0.0002560673004 -1.98128028e-06 0)
(0.000256722297 -2.070514715e-06 0)
(0.0002574027653 -2.140055845e-06 0)
(0.0002581060958 -2.18959593e-06 0)
(0.0002187115133 1.022553103e-06 0)
(0.0002191184713 2.972246722e-06 0)
(0.0002199363624 4.702295987e-06 0)
(0.0002210833133 6.15396553e-06 0)
(0.0002224244896 7.339285675e-06 0)
(0.0002238772211 8.282643393e-06 0)
(0.0002254065981 8.991449232e-06 0)
(0.000226984292 9.472413531e-06 0)
(0.000228577298 9.745462349e-06 0)
(0.0002301576252 9.838827013e-06 0)
(0.0002317060886 9.780882019e-06 0)
(0.0002332083288 9.597816605e-06 0)
(0.0002346519886 9.31406311e-06 0)
(0.0002360272139 8.952131907e-06 0)
(0.0002373276684 8.5319891e-06 0)
(0.0002385505231 8.070749169e-06 0)
(0.0002396958761 7.582712752e-06 0)
(0.0002407661884 7.079526439e-06 0)
(0.0002417658044 6.570375642e-06 0)
(0.0002427004634 6.06223068e-06 0)
(0.0002435768057 5.560149185e-06 0)
(0.0002444019352 5.067602918e-06 0)
(0.0002451830761 4.586796991e-06 0)
(0.000245927318 4.118964259e-06 0)
(0.0002466414376 3.664627764e-06 0)
(0.000247331784 3.223829455e-06 0)
(0.0002480042127 2.796322927e-06 0)
(0.0002486640603 2.38172581e-06 0)
(0.0002493161503 1.979629195e-06 0)
(0.0002499648503 1.589664562e-06 0)
(0.0002506141201 1.211586536e-06 0)
(0.0002512674369 8.45234155e-07 0)
(0.0002519279267 4.90685572e-07 0)
(0.0002525973745 1.482419958e-07 0)
(0.0002532783618 -1.817558658e-07 0)
(0.0002539744748 -4.988059729e-07 0)
(0.0002546886026 -8.028885654e-07 0)
(0.0002554215562 -1.094267416e-06 0)
(0.0002561741378 -1.37199681e-06 0)
(0.000256947519 -1.634986187e-06 0)
(0.000257742531 -1.882344392e-06 0)
(0.0002585594238 -2.113247051e-06 0)
(0.0002593980813 -2.326849013e-06 0)
(0.0002602581826 -2.522292337e-06 0)
(0.0002611392049 -2.698733824e-06 0)
(0.0002620403915 -2.855363439e-06 0)
(0.0002629607489 -2.991416769e-06 0)
(0.0002638990602 -3.106185942e-06 0)
(0.0002648538995 -3.199027631e-06 0)
(0.0002658236426 -3.269369956e-06 0)
(0.0002186959368 7.785781018e-07 0)
(0.0002189840249 2.302947438e-06 0)
(0.0002195809416 3.718626608e-06 0)
(0.0002204473872 4.960907602e-06 0)
(0.000221490846 6.002741163e-06 0)
(0.000222641187 6.841907702e-06 0)
(0.0002238603383 7.482170839e-06 0)
(0.000225120496 7.930427384e-06 0)
(0.0002263932229 8.200550156e-06 0)
(0.0002276534225 8.312359602e-06 0)
(0.000228883778 8.287585705e-06 0)
(0.0002300738936 8.147580203e-06 0)
(0.0002312177297 7.912869001e-06 0)
(0.0002323123203 7.602825099e-06 0)
(0.0002333573839 7.235026816e-06 0)
(0.0002343548215 6.824765226e-06 0)
(0.0002353080297 6.384910348e-06 0)
(0.0002362213277 5.926008458e-06 0)
(0.0002370995812 5.456467724e-06 0)
(0.0002379479335 4.982787208e-06 0)
(0.0002387715809 4.509819954e-06 0)
(0.0002395755926 4.041050435e-06 0)
(0.0002403647845 3.57886334e-06 0)
(0.0002411436401 3.124789082e-06 0)
(0.0002419162675 2.679720552e-06 0)
(0.0002426863816 2.244100326e-06 0)
(0.0002434573054 1.818078064e-06 0)
(0.0002442319895 1.401645921e-06 0)
(0.0002450130342 9.947504105e-07 0)
(0.0002458028143 5.973486107e-07 0)
(0.000246603436 2.09404517e-07 0)
(0.0002474167269 -1.689709351e-07 0)
(0.0002482442992 -5.375079777e-07 0)
(0.0002490887092 -8.956633118e-07 0)
(0.0002499509845 -1.243228095e-06 0)
(0.0002508319204 -1.580072975e-06 0)
(0.0002517321637 -1.905761485e-06 0)
(0.0002526522683 -2.219389917e-06 0)
(0.0002535927158 -2.519662853e-06 0)
(0.0002545538608 -2.805376777e-06 0)
(0.0002555358396 -3.075514935e-06 0)
(0.0002565385312 -3.329082657e-06 0)
(0.0002575616014 -3.565026508e-06 0)
(0.0002586045437 -3.782264093e-06 0)
(0.0002596666785 -3.979727248e-06 0)
(0.0002607471399 -4.156382518e-06 0)
(0.0002618448746 -4.311241746e-06 0)
(0.0002629586504 -4.443373985e-06 0)
(0.0002640870655 -4.551918032e-06 0)
(0.000265228557 -4.636093167e-06 0)
(0.000218687293 6.07604313e-07 0)
(0.0002189026702 1.802835923e-06 0)
(0.0002193490864 2.927039271e-06 0)
(0.0002200079843 3.930089692e-06 0)
(0.000220822295 4.785434218e-06 0)
(0.0002217437798 5.486744854e-06 0)
(0.0002227415709 6.03548684e-06 0)
(0.0002237912306 6.435477972e-06 0)
(0.0002248682499 6.693947082e-06 0)
(0.0002259499626 6.82223561e-06 0)
(0.000227018791 6.834275021e-06 0)
(0.0002280626494 6.744868763e-06 0)
(0.0002290736749 6.568865997e-06 0)
(0.0002300472494 6.320746806e-06 0)
(0.000230981577 6.01416263e-06 0)
(0.0002318772846 5.661510642e-06 0)
(0.0002327368544 5.273696404e-06 0)
(0.0002335640421 4.860069559e-06 0)
(0.0002343634089 4.428453316e-06 0)
(0.0002351399609 3.985227467e-06 0)
(0.000235898863 3.535456754e-06 0)
(0.0002366452153 3.083052723e-06 0)
(0.0002373838923 2.630951965e-06 0)
(0.0002381194395 2.18129497e-06 0)
(0.0002388560145 1.735599174e-06 0)
(0.0002395973619 1.294904885e-06 0)
(0.0002403468217 8.599188355e-07 0)
(0.0002411073387 4.311286923e-07 0)
(0.0002418816167 8.89973985e-09 0)
(0.0002426718205 -4.064166409e-07 0)
(0.0002434798649 -8.145099757e-07 0)
(0.000244307515 -1.214992705e-06 0)
(0.0002451561741 -1.607452544e-06 0)
(0.000246026904 -1.99151443e-06 0)
(0.0002469205699 -2.36650153e-06 0)
(0.0002478379557 -2.731560191e-06 0)
(0.0002487796609 -3.08567664e-06 0)
(0.0002497460301 -3.427713172e-06 0)
(0.0002507371779 -3.756472772e-06 0)
(0.0002517530577 -4.070739412e-06 0)
(0.0002527934877 -4.369281813e-06 0)
(0.0002538581118 -4.65082936e-06 0)
(0.0002549463697 -4.91407134e-06 0)
(0.0002560575017 -5.15768573e-06 0)
(0.0002571905608 -5.380369636e-06 0)
(0.0002583444171 -5.580858939e-06 0)
(0.0002595177613 -5.757942925e-06 0)
(0.000260709112 -5.910479297e-06 0)
(0.0002619168261 -6.03740892e-06 0)
(0.0002631391106 -6.137768138e-06 0)
(0.0002186809063 4.771156062e-07 0)
(0.0002188459044 1.417101249e-06 0)
(0.0002191900842 2.308829306e-06 0)
(0.0002197054269 3.117482924e-06 0)
(0.0002203548895 3.820861608e-06 0)
(0.0002211042485 4.40912256e-06 0)
(0.0002219288894 4.878848349e-06 0)
(0.0002228083962 5.229765115e-06 0)
(0.0002237230368 5.46482841e-06 0)
(0.0002246546126 5.590547811e-06 0)
(0.0002255882402 5.616095037e-06 0)
(0.0002265127887 5.551998528e-06 0)
(0.0002274203068 5.409275234e-06 0)
(0.000228305445 5.198966387e-06 0)
(0.0002291651594 4.931769086e-06 0)
(0.0002299984626 4.617690632e-06 0)
(0.00023080607 4.265799445e-06 0)
(0.0002315899956 3.884099299e-06 0)
(0.0002323531888 3.479494702e-06 0)
(0.0002330992347 3.05781204e-06 0)
(0.0002338321025 2.62386438e-06 0)
(0.0002345559369 2.181548407e-06 0)
(0.0002352748914 1.73397052e-06 0)
(0.0002359930097 1.283551608e-06 0)
(0.0002367141286 8.321987061e-07 0)
(0.0002374418245 3.813665253e-07 0)
(0.0002381794301 -6.780720398e-08 0)
(0.000238929936 -5.143946965e-07 0)
(0.0002396959039 -9.576188403e-07 0)
(0.0002404797422 -1.396743919e-06 0)
(0.0002412835843 -1.831006671e-06 0)
(0.0002421092944 -2.259682548e-06 0)
(0.000242958449 -2.68201651e-06 0)
(0.0002438323619 -3.097153472e-06 0)
(0.0002447321156 -3.504073013e-06 0)
(0.0002456585728 -3.901656984e-06 0)
(0.0002466123619 -4.28872243e-06 0)
(0.0002475938728 -4.664003765e-06 0)
(0.0002486032843 -5.026131772e-06 0)
(0.0002496405931 -5.373638534e-06 0)
(0.00025070561 -5.704995595e-06 0)
(0.0002517979309 -6.018646597e-06 0)
(0.0002529169183 -6.313023482e-06 0)
(0.0002540617077 -6.586561499e-06 0)
(0.0002552312203 -6.837719323e-06 0)
(0.0002564241716 -7.065000261e-06 0)
(0.0002576390779 -7.266971768e-06 0)
(0.0002588742656 -7.442283434e-06 0)
(0.0002601278851 -7.589683409e-06 0)
(0.0002613979265 -7.708032442e-06 0)
(0.0002186765777 3.756578257e-07 0)
(0.0002188073455 1.117035859e-06 0)
(0.0002190810159 1.824669097e-06 0)
(0.0002194940853 2.473037618e-06 0)
(0.00022002089 3.043562067e-06 0)
(0.0002206369103 3.525557361e-06 0)
(0.0002213236025 3.913625353e-06 0)
(0.0002220649382 4.205746465e-06 0)
(0.0002228453184 4.402837131e-06 0)
(0.0002236501852 4.508611183e-06 0)
(0.0002244671797 4.528986483e-06 0)
(0.0002252865476 4.471247835e-06 0)
(0.0002261009234 4.343380253e-06 0)
(0.0002269050154 4.15364229e-06 0)
(0.000227695394 3.910244149e-06 0)
(0.0002284703087 3.62106193e-06 0)
(0.0002292294493 3.293414077e-06 0)
(0.0002299736708 2.933923044e-06 0)
(0.0002307047259 2.548454029e-06 0)
(0.0002314250337 2.142100785e-06 0)
(0.000232137478 1.719221581e-06 0)
(0.000232845244 1.283452796e-06 0)
(0.0002335516471 8.378652501e-07 0)
(0.0002342600634 3.849589419e-07 0)
(0.0002349738181 -7.323792921e-08 0)
(0.0002356960657 -5.350074814e-07 0)
(0.0002364297951 -9.988975833e-07 0)
(0.0002371778405 -1.463656526e-06 0)
(0.0002379428252 -1.928149745e-06 0)
(0.0002387271446 -2.391336894e-06 0)
(0.0002395329538 -2.852198502e-06 0)
(0.0002403621789 -3.309707264e-06 0)
(0.0002412165181 -3.762784307e-06 0)
(0.0002420974353 -4.210266551e-06 0)
(0.0002430061566 -4.65089305e-06 0)
(0.0002439436769 -5.083303446e-06 0)
(0.0002449107662 -5.506035527e-06 0)
(0.0002459079681 -5.917516633e-06 0)
(0.0002469355967 -6.316066318e-06 0)
(0.0002479937345 -6.699919071e-06 0)
(0.0002490822263 -7.067256983e-06 0)
(0.0002502006697 -7.416234768e-06 0)
(0.000251348409 -7.744995214e-06 0)
(0.0002525245374 -8.051685801e-06 0)
(0.0002537279026 -8.334481559e-06 0)
(0.0002549571151 -8.591610664e-06 0)
(0.0002562105566 -8.821378728e-06 0)
(0.000257486393 -9.022190769e-06 0)
(0.0002587825919 -9.192570917e-06 0)
(0.0002600969418 -9.331179358e-06 0)
(0.0002186734593 2.94609088e-07 0)
(0.0002187794856 8.765062522e-07 0)
(0.0002190016871 1.433540199e-06 0)
(0.0002193387706 1.946470363e-06 0)
(0.0002197723423 2.400373332e-06 0)
(0.0002202847567 2.785596626e-06 0)
(0.0002208623637 3.096404817e-06 0)
(0.0002214928012 3.329848128e-06 0)
(0.0002221636803 3.485360324e-06 0)
(0.0002228632407 3.564570421e-06 0)
(0.0002235812561 3.570932529e-06 0)
(0.0002243093681 3.509203046e-06 0)
(0.0002250410099 3.384954527e-06 0)
(0.0002257712449 3.204207073e-06 0)
(0.0002264966394 2.973142208e-06 0)
(0.0002272151378 2.697860423e-06 0)
(0.0002279258971 2.384186857e-06 0)
(0.0002286290958 2.037532627e-06 0)
(0.0002293257354 1.662827338e-06 0)
(0.0002300174724 1.264428977e-06 0)
(0.0002307064125 8.462444979e-07 0)
(0.0002313950548 4.116097429e-07 0)
(0.0002320861271 -3.666403243e-08 0)
(0.0002327823655 -4.960966111e-07 0)
(0.0002334866223 -9.645888345e-07 0)
(0.0002342017739 -1.440300732e-06 0)
(0.0002349305652 -1.921617475e-06 0)
(0.0002356756239 -2.407095939e-06 0)
(0.0002364394478 -2.895399913e-06 0)
(0.0002372243786 -3.385251234e-06 0)
(0.0002380325825 -3.8753783e-06 0)
(0.0002388660391 -4.364478036e-06 0)
(0.000239726531 -4.851188873e-06 0)
(0.0002406156312 -5.334067979e-06 0)
(0.0002415346943 -5.811572178e-06 0)
(0.0002424848527 -6.282045058e-06 0)
(0.0002434670111 -6.743715268e-06 0)
(0.000244481835 -7.194701541e-06 0)
(0.0002455297391 -7.63302277e-06 0)
(0.000246610879 -8.056613927e-06 0)
(0.0002477251447 -8.463346296e-06 0)
(0.0002488721531 -8.851049332e-06 0)
(0.0002500512405 -9.217533451e-06 0)
(0.00025126146 -9.560615444e-06 0)
(0.0002525015839 -9.878147046e-06 0)
(0.000253770111 -1.016804482e-05 0)
(0.0002550652783 -1.042831913e-05 0)
(0.000256385077 -1.065710107e-05 0)
(0.000257727273 -1.085266667e-05 0)
(0.0002590894323 -1.101345758e-05 0)
(0.0002186711113 2.284341607e-07 0)
(0.000218758571 6.797139597e-07 0)
(0.0002189420745 1.112096007e-06 0)
(0.0002192215282 1.510815441e-06 0)
(0.0002195833264 1.863951102e-06 0)
(0.0002200145031 2.163126254e-06 0)
(0.0002205049779 2.40271818e-06 0)
(0.0002210452817 2.579248376e-06 0)
(0.0002216256384 2.69117515e-06 0)
(0.0002222366145 2.738757185e-06 0)
(0.00022286986 2.723789623e-06 0)
(0.0002235183689 2.649241561e-06 0)
(0.0002241764546 2.518898034e-06 0)
(0.0002248396815 2.337062223e-06 0)
(0.0002255048085 2.108314416e-06 0)
(0.0002261697183 1.837307756e-06 0)
(0.0002268333072 1.528605552e-06 0)
(0.0002274953663 1.186529207e-06 0)
(0.0002281563768 8.151944153e-07 0)
(0.0002288175092 4.182898914e-07 0)
(0.0002294804034 -9.515825894e-10 0)
(0.0002301468946 -4.395294104e-07 0)
(0.0002308192244 -8.948370976e-07 0)
(0.0002314998797 -1.364546058e-06 0)
(0.0002321913653 -1.846571321e-06 0)
(0.0002328962241 -2.339088717e-06 0)
(0.0002336169934 -2.840441472e-06 0)
(0.0002343561695 -3.349080478e-06 0)
(0.0002351161756 -3.863521849e-06 0)
(0.000235899331 -4.382306693e-06 0)
(0.0002367078258 -4.903962287e-06 0)
(0.0002375437007 -5.426968174e-06 0)
(0.0002384088294 -5.949729118e-06 0)
(0.0002393049017 -6.47055209e-06 0)
(0.0002402334069 -6.98762805e-06 0)
(0.000241195619 -7.499021364e-06 0)
(0.0002421925799 -8.002667881e-06 0)
(0.000243225083 -8.496379033e-06 0)
(0.0002442936565 -8.977850435e-06 0)
(0.0002453985481 -9.444676147e-06 0)
(0.0002465397113 -9.894369457e-06 0)
(0.0002477167928 -1.032438907e-05 0)
(0.0002489291223 -1.073216872e-05 0)
(0.0002501757068 -1.111514933e-05 0)
(0.0002514552317 -1.147081321e-05 0)
(0.000252766068 -1.179671969e-05 0)
(0.0002541062853 -1.209054053e-05 0)
(0.0002554736711 -1.235009356e-05 0)
(0.0002568657558 -1.257337301e-05 0)
(0.0002582798435 -1.275857534e-05 0)
(0.0002186693017 1.735285519e-07 0)
(0.000218742477 5.16217585e-07 0)
(0.0002188961507 8.441769707e-07 0)
(0.0002191308674 1.145809943e-06 0)
(0.0002194362696 1.411468649e-06 0)
(0.0002198026326 1.633962494e-06 0)
(0.0002202224877 1.808056229e-06 0)
(0.0002206886409 1.930143942e-06 0)
(0.0002211934431 1.998168518e-06 0)
(0.0002217293738 2.011533064e-06 0)
(0.0002222896626 1.970904788e-06 0)
(0.0002228685064 1.877957389e-06 0)
(0.0002234610712 1.735115699e-06 0)
(0.000224063477 1.545331071e-06 0)
(0.000224672786 1.311888806e-06 0)
(0.0002252869755 1.038241888e-06 0)
(0.0002259048386 7.27888292e-07 0)
(0.0002265260378 3.842495569e-07 0)
(0.0002271508333 1.047928675e-08 0)
(0.0002277798154 -3.903369775e-07 0)
(0.0002284142522 -8.154429496e-07 0)
(0.0002290558836 -1.262264821e-06 0)
(0.0002297066017 -1.728423099e-06 0)
(0.0002303685085 -2.211826743e-06 0)
(0.0002310438583 -2.710568719e-06 0)
(0.0002317350084 -3.222884358e-06 0)
(0.0002324443703 -3.747111948e-06 0)
(0.0002331743631 -4.281654549e-06 0)
(0.0002339273771 -4.824943873e-06 0)
(0.0002347057432 -5.375403846e-06 0)
(0.0002355117056 -5.931415295e-06 0)
(0.0002363473961 -6.491283829e-06 0)
(0.0002372148097 -7.053212619e-06 0)
(0.0002381157811 -7.615280283e-06 0)
(0.0002390519602 -8.175424318e-06 0)
(0.000240024788 -8.731430966e-06 0)
(0.0002410354724 -9.280931913e-06 0)
(0.0002420849634 -9.821407647e-06 0)
(0.0002431739288 -1.035019737e-05 0)
(0.0002443027308 -1.086451591e-05 0)
(0.0002454714044 -1.136147761e-05 0)
(0.0002466796386 -1.183812641e-05 0)
(0.0002479267623 -1.229147077e-05 0)
(0.000249211735 -1.271852255e-05 0)
(0.000250533146 -1.311633916e-05 0)
(0.0002518892197 -1.348206768e-05 0)
(0.0002532778305 -1.381298931e-05 0)
(0.0002546965249 -1.41065619e-05 0)
(0.000256142553 -1.436045855e-05 0)
(0.0002576129057 -1.457260042e-05 0)
(0.0002186678733 1.273804195e-07 0)
(0.0002187297863 3.786453162e-07 0)
(0.0002188599053 6.181540051e-07 0)
(0.0002190591087 8.366003386e-07 0)
(0.0002193193356 1.026068889e-06 0)
(0.0002196331692 1.180405831e-06 0)
(0.0002199950509 1.294862551e-06 0)
(0.0002203995301 1.365908557e-06 0)
(0.00022084064 1.391221451e-06 0)
(0.0002213124013 1.36964385e-06 0)
(0.0002218093515 1.301049134e-06 0)
(0.0002223267314 1.18616214e-06 0)
(0.0002228604997 1.02637811e-06 0)
(0.0002234073425 8.235980356e-07 0)
(0.0002239646895 5.800761914e-07 0)
(0.0002245307298 2.982892467e-07 0)
(0.0002251043638 -1.920160377e-08 0)
(0.0002256849875 -3.697813709e-07 0)
(0.0002262726887 -7.5100063e-07 0)
(0.000226868172 -1.160415371e-06 0)
(0.0002274724507 -1.595640444e-06 0)
(0.0002280869084 -2.054555196e-06 0)
(0.0002287132169 -2.535185561e-06 0)
(0.0002293532942 -3.03568517e-06 0)
(0.0002300092532 -3.554313857e-06 0)
(0.0002306833438 -4.089413558e-06 0)
(0.0002313779046 -4.639382047e-06 0)
(0.0002320953243 -5.202640166e-06 0)
(0.0002328380069 -5.777596423e-06 0)
(0.0002336083405 -6.36261215e-06 0)
(0.0002344086659 -6.955968486e-06 0)
(0.0002352412465 -7.555836068e-06 0)
(0.0002361082383 -8.160248461e-06 0)
(0.0002370116592 -8.767080151e-06 0)
(0.0002379533581 -9.374029736e-06 0)
(0.0002389349822 -9.978609081e-06 0)
(0.0002399579445 -1.057813928e-05 0)
(0.0002410233903 -1.116975403e-05 0)
(0.000242132163 -1.175041079e-05 0)
(0.0002432847723 -1.231690983e-05 0)
(0.0002444813635 -1.28659214e-05 0)
(0.0002457216911 -1.339402047e-05 0)
(0.0002470050975 -1.389772864e-05 0)
(0.000248330499 -1.437356197e-05 0)
(0.00024969638 -1.481808367e-05 0)
(0.0002511007977 -1.52279597e-05 0)
(0.0002525413974 -1.560001515e-05 0)
(0.0002540154391 -1.593128862e-05 0)
(0.0002555198355 -1.621908197e-05 0)
(0.0002570511993 -1.646100261e-05 0)
(0.0002186667193 8.819747997e-08 0)
(0.0002187195501 2.617268277e-07 0)
(0.0002188306619 4.256643725e-07 0)
(0.000219001094 5.723949773e-07 0)
(0.0002192244573 6.953244965e-07 0)
(0.0002194950096 7.891524982e-07 0)
(0.0002198085901 8.495975227e-07 0)
(0.0002201610702 8.732875711e-07 0)
(0.0002205478017 8.577885038e-07 0)
(0.0002209640437 8.015887928e-07 0)
(0.0002214054155 7.040121716e-07 0)
(0.000221868053 5.65096582e-07 0)
(0.0002223486288 3.854646943e-07 0)
(0.0002228443731 1.661989979e-07 0)
(0.0002233531037 -9.127327044e-08 0)
(0.0002238732136 -3.852834733e-07 0)
(0.0002244036959 -7.14034531e-07 0)
(0.000224944103 -1.0756564e-06 0)
(0.0002254944975 -1.468169868e-06 0)
(0.00022605541 -1.889732417e-06 0)
(0.0002266277352 -2.338550552e-06 0)
(0.0002272127231 -2.812908239e-06 0)
(0.0002278119416 -3.31116029e-06 0)
(0.0002284272167 -3.831723874e-06 0)
(0.0002290605817 -4.373071012e-06 0)
(0.0002297142342 -4.93370906e-06 0)
(0.000230390498 -5.51215325e-06 0)
(0.000231091788 -6.10689526e-06 0)
(0.0002318205764 -6.716370438e-06 0)
(0.000232579359 -7.338925175e-06 0)
(0.0002333706222 -7.972785131e-06 0)
(0.000234196809 -8.616025074e-06 0)
(0.0002350602846 -9.266541466e-06 0)
(0.0002359633 -9.92202894e-06 0)
(0.0002369079538 -1.057996173e-05 0)
(0.000237896152 -1.123758115e-05 0)
(0.0002389295658 -1.189189021e-05 0)
(0.0002400095881 -1.253965638e-05 0)
(0.0002411372891 -1.317742326e-05 0)
(0.0002423133732 -1.380153171e-05 0)
(0.0002435381374 -1.440815096e-05 0)
(0.0002448114345 -1.49933197e-05 0)
(0.0002461326424 -1.555299663e-05 0)
(0.000247500642 -1.608311949e-05 0)
(0.0002489138058 -1.657967092e-05 0)
(0.0002503699999 -1.703874898e-05 0)
(0.0002518666 -1.745663928e-05 0)
(0.0002534005224 -1.782988549e-05 0)
(0.0002549682706 -1.815535417e-05 0)
(0.0002565659949 -1.843029031e-05 0)
(0.0002186657638 5.467646389e-08 0)
(0.0002187111059 1.616331234e-07 0)
(0.0002188065568 2.606024984e-07 0)
(0.0002189532124 3.452265016e-07 0)
(0.0002191459266 4.099201911e-07 0)
(0.0002193801913 4.500752638e-07 0)
(0.0002196528789 4.618191737e-07 0)
(0.000219960872 4.419580999e-07 0)
(0.0002203005543 3.880374665e-07 0)
(0.0002206681699 2.983309408e-07 0)
(0.0002210602208 1.717848511e-07 0)
(0.0002214736004 7.933637503e-09 0)
(0.0002219056014 -1.931897963e-07 0)
(0.0002223539417 -4.311458181e-07 0)
(0.0002228168097 -7.05172331e-07 0)
(0.0002232928827 -1.014267001e-06 0)
(0.000223781332 -1.357241686e-06 0)
(0.000224281801 -1.732821318e-06 0)
(0.0002247943704 -2.139663144e-06 0)
(0.000225319536 -2.576428526e-06 0)
(0.000225858172 -3.041781407e-06 0)
(0.0002264114943 -3.534395292e-06 0)
(0.0002269810246 -4.052967013e-06 0)
(0.0002275685489 -4.596214748e-06 0)
(0.0002281760807 -5.162864876e-06 0)
(0.0002288058278 -5.751631104e-06 0)
(0.0002294601589 -6.36118873e-06 0)
(0.0002301415715 -6.990145827e-06 0)
(0.0002308526589 -7.637012199e-06 0)
(0.000231596077 -8.300166912e-06 0)
(0.0002323745108 -8.977825403e-06 0)
(0.0002331906376 -9.668007366e-06 0)
(0.0002340470894 -1.036850667e-05 0)
(0.0002349464105 -1.107686469e-05 0)
(0.0002358910131 -1.179034836e-05 0)
(0.0002368831281 -1.250593439e-05 0)
(0.0002379247528 -1.322030111e-05 0)
(0.0002390175967 -1.392982933e-05 0)
(0.000240163024 -1.463061361e-05 0)
(0.0002413619972 -1.531848509e-05 0)
(0.0002426150218 -1.598904673e-05 0)
(0.0002439220955 -1.66377215e-05 0)
(0.0002452826644 -1.725981321e-05 0)
(0.0002466955903 -1.785057919e-05 0)
(0.0002481591304 -1.84053129e-05 0)
(0.0002496709343 -1.891943382e-05 0)
(0.0002512280598 -1.938858083e-05 0)
(0.000252827009 -1.98087044e-05 0)
(0.0002544637849 -2.017615243e-05 0)
(0.0002561339674 -2.048774418e-05 0)
(0.0002186649623 2.579572457e-08 0)
(0.0002187040227 7.540189769e-08 0)
(0.0002187863182 1.18265292e-07 0)
(0.0002189129394 1.489378082e-07 0)
(0.0002190797013 1.625919034e-07 0)
(0.0002192830154 1.551655854e-07 0)
(0.0002195205045 1.231714151e-07 0)
(0.0002197898303 6.361169583e-08 0)
(0.0002200881977 -2.598096073e-08 0)
(0.000220412637 -1.474833537e-07 0)
(0.0002207603635 -3.022154095e-07 0)
(0.0002211288925 -4.9101339e-07 0)
(0.0002215160511 -7.142964692e-07 0)
(0.0002219200015 -9.721280747e-07 0)
(0.0002223392831 -1.264280636e-06 0)
(0.0002227728404 -1.590299807e-06 0)
(0.0002232200311 -1.949558182e-06 0)
(0.0002236806206 -2.341311819e-06 0)
(0.0002241547697 -2.764734139e-06 0)
(0.0002246430179 -3.218946441e-06 0)
(0.0002251462614 -3.703040309e-06 0)
(0.0002256657245 -4.216088451e-06 0)
(0.0002262029336 -4.757149638e-06 0)
(0.0002267596912 -5.325263459e-06 0)
(0.0002273380485 -5.919436446e-06 0)
(0.000227940278 -6.538622497e-06 0)
(0.0002285688454 -7.181698582e-06 0)
(0.0002292263813 -7.847436177e-06 0)
(0.0002299156516 -8.534469137e-06 0)
(0.0002306395263 -9.241259066e-06 0)
(0.0002314009455 -9.966059393e-06 0)
(0.0002322028824 -1.070687942e-05 0)
(0.0002330483015 -1.146144964e-05 0)
(0.000233940112 -1.222718985e-05 0)
(0.000234881116 -1.300118165e-05 0)
(0.0002358739508 -1.378014714e-05 0)
(0.0002369210259 -1.456043576e-05 0)
(0.0002380244552 -1.533802127e-05 0)
(0.0002391859847 -1.610851093e-05 0)
(0.0002404069198 -1.686716877e-05 0)
(0.0002416880517 -1.760895442e-05 0)
(0.000243029589 -1.832857883e-05 0)
(0.0002444310958 -1.902057706e-05 0)
(0.0002458914428 -1.967939747e-05 0)
(0.000247408775 -2.029950563e-05 0)
(0.0002489804995 -2.087549944e-05 0)
(0.0002506032997 -2.140223077e-05 0)
(0.0002522731758 -2.187492747e-05 0)
(0.000253985514 -2.228930821e-05 0)
(0.0002557351839 -2.26416825e-05 0)
(0.000218664307 8.971739504e-10 0)
(0.000218698088 1.023483841e-09 0)
(0.0002187691517 -4.63944732e-09 0)