/*--------------------------------*- C++ -*----------------------------------*\
| =========                 |                                                 |
| \\      /  F ield         | foam-extend: Open Source CFD                    |
|  \\    /   O peration     | Version:     4.1                                |
|   \\  /    A nd           | Web:         http://www.foam-extend.org         |
|    \\/     M anipulation  |                                                 |
\*---------------------------------------------------------------------------*/
FoamFile
{
    version     2.0;
    format      ascii;
    class       volVectorField;
    location    "30000";
    object      vorticity;
}
// * * * * * * * * * * * * * * * * * * * * * * * * * * * * * * * * * * * * * //

dimensions      [0 0 -1 0 0 0 0];

internalField   nonuniform List<vector> 
15920
(
(0 -0 -0.008257177276)
(0 -0 -0.008406258143)
(0 -0 -0.008450758569)
(0 -0 -0.008326658131)
(0 -0 -0.008117296613)
(0 -0 -0.007880779098)
(0 -0 -0.007628082331)
(0 -0 -0.00736048258)
(0 -0 -0.007086494902)
(0 -0 -0.006817019155)
(0 -0 -0.006559665742)
(0 -0 -0.006318613386)
(0 -0 -0.006096224421)
(0 -0 -0.005893767149)
(0 -0 -0.005711509515)
(0 -0 -0.005548879733)
(0 -0 -0.005404758198)
(0 -0 -0.005277734658)
(0 -0 -0.005166275458)
(0 -0 -0.005068830691)
(0 -0 -0.004983907636)
(0 -0 -0.004910117986)
(0 -0 -0.004846202648)
(0 -0 -0.004791039587)
(0 -0 -0.004743639391)
(0 -0 -0.00470311939)
(0 -0 -0.004668738148)
(0 -0 -0.004639885302)
(0 -0 -0.004616195633)
(0 -0 -0.004597049705)
(0 -0 -0.004581915829)
(0 -0 -0.004570484642)
(0 -0 -0.004562508684)
(0 -0 -0.004557726406)
(0 -0 -0.004555885024)
(0 -0 -0.004556755027)
(0 -0 -0.004560134808)
(0 -0 -0.004565826532)
(0 -0 -0.004573638972)
(0 -0 -0.004583389866)
(0 -0 -0.004594892528)
(0 -0 -0.004607957753)
(0 -0 -0.004622398854)
(0 -0 -0.004638031279)
(0 -0 -0.004654670481)
(0 -0 -0.004672131012)
(0 -0 -0.004690226467)
(0 -0 -0.004708769542)
(0 -0 -0.004727572134)
(0 -0 -0.00474644558)
(0 -0 0.0003528774484)
(0 -0 -1.043376358e-05)
(0 -0 -0.00039785429)
(0 -0 -0.0007982400429)
(0 -0 -0.001194781288)
(0 -0 -0.001571279048)
(0 -0 -0.00191864996)
(0 -0 -0.002231897989)
(0 -0 -0.002507140705)
(0 -0 -0.002742230358)
(0 -0 -0.002937611227)
(0 -0 -0.003095829563)
(0 -0 -0.003220538977)
(0 -0 -0.003315839722)
(0 -0 -0.00338595265)
(0 -0 -0.003434992875)
(0 -0 -0.003466782302)
(0 -0 -0.003484733399)
(0 -0 -0.0034918071)
(0 -0 -0.003490517294)
(0 -0 -0.003482958479)
(0 -0 -0.003470845562)
(0 -0 -0.003455560123)
(0 -0 -0.003438198464)
(0 -0 -0.00341961895)
(0 -0 -0.003400489771)
(0 -0 -0.003381308252)
(0 -0 -0.003362438942)
(0 -0 -0.003344096632)
(0 -0 -0.003326519936)
(0 -0 -0.003309844193)
(0 -0 -0.003294163341)
(0 -0 -0.00327954059)
(0 -0 -0.003266016011)
(0 -0 -0.00325360721)
(0 -0 -0.003242314846)
(0 -0 -0.003232120516)
(0 -0 -0.003222966937)
(0 -0 -0.003214823327)
(0 -0 -0.003207681672)
(0 -0 -0.003201534679)
(0 -0 -0.00319636966)
(0 -0 -0.003192170889)
(0 -0 -0.003188921404)
(0 -0 -0.003186603114)
(0 -0 -0.003185196604)
(0 -0 -0.003184681134)
(0 -0 -0.003185034684)
(0 -0 -0.00318623389)
(0 -0 -0.003188253953)
(0 -0 0.0001726807569)
(0 -0 0.0002513758398)
(0 -0 0.0003149313123)
(0 -0 0.000342458796)
(0 -0 0.0003283796749)
(0 -0 0.0002749843614)
(0 -0 0.0001888011651)
(0 -0 7.774987373e-05)
(0 -0 -5.027473277e-05)
(0 -0 -0.0001880235464)
(0 -0 -0.000329305622)
(0 -0 -0.0004692217354)
(0 -0 -0.0006041655538)
(0 -0 -0.00073167486)
(0 -0 -0.0008502384116)
(0 -0 -0.0009590986731)
(0 -0 -0.00105806308)
(0 -0 -0.001147336311)
(0 -0 -0.001227382919)
(0 -0 -0.001298821759)
(0 -0 -0.001362348416)
(0 -0 -0.001418680669)
(0 -0 -0.001468522285)
(0 -0 -0.00151254084)
(0 -0 -0.001551355271)
(0 -0 -0.001585531643)
(0 -0 -0.001615576139)
(0 -0 -0.001641947405)
(0 -0 -0.001665035737)
(0 -0 -0.001685261185)
(0 -0 -0.001702927164)
(0 -0 -0.001718315515)
(0 -0 -0.001731685724)
(0 -0 -0.001743266936)
(0 -0 -0.001753269691)
(0 -0 -0.001761851092)
(0 -0 -0.001769148279)
(0 -0 -0.001775346523)
(0 -0 -0.001780602917)
(0 -0 -0.001785059137)
(0 -0 -0.001788844002)
(0 -0 -0.001792076081)
(0 -0 -0.001794865915)
(0 -0 -0.001797317001)
(0 -0 -0.001799526152)
(0 -0 -0.001801583901)
(0 -0 -0.001803574984)
(0 -0 -0.001805578796)
(0 -0 -0.001807669754)
(0 -0 -0.001809917609)
(0 -0 0.000145693601)
(0 -0 0.0001485100939)
(0 -0 0.0001592419651)
(0 -0 0.0001781115191)
(0 -0 0.0002025596015)
(0 -0 0.0002284446538)
(0 -0 0.000251365305)
(0 -0 0.0002678161305)
(0 -0 0.0002755965894)
(0 -0 0.0002737504781)
(0 -0 0.0002623477464)
(0 -0 0.0002422037252)
(0 -0 0.0002145806761)
(0 -0 0.0001809334042)
(0 -0 0.000142727032)
(0 -0 0.0001013214492)
(0 -0 5.79082993e-05)
(0 -0 1.34863102e-05)
(0 -0 -3.113770154e-05)
(0 -0 -7.533276916e-05)
(0 -0 -0.0001186205114)
(0 -0 -0.0001606498223)
(0 -0 -0.0002011725897)
(0 -0 -0.0002400220838)
(0 -0 -0.000277094595)
(0 -0 -0.0003123344496)
(0 -0 -0.0003457218985)
(0 -0 -0.0003772644614)
(0 -0 -0.0004069889249)
(0 -0 -0.000434940367)
(0 -0 -0.0004611725449)
(0 -0 -0.0004857467242)
(0 -0 -0.0005087335701)
(0 -0 -0.0005301797413)
(0 -0 -0.0005501498105)
(0 -0 -0.0005687557539)
(0 -0 -0.0005861241252)
(0 -0 -0.0006023641199)
(0 -0 -0.0006175509945)
(0 -0 -0.0006317527432)
(0 -0 -0.0006450360451)
(0 -0 -0.0006574678086)
(0 -0 -0.0006691156629)
(0 -0 -0.0006800478527)
(0 -0 -0.000690332919)
(0 -0 -0.0007000393698)
(0 -0 -0.0007092353719)
(0 -0 -0.0007179884444)
(0 -0 -0.0007263652056)
(0 -0 -0.0007344311542)
(0 -0 0.0001013668853)
(0 -0 0.0001023048969)
(0 -0 0.0001035272553)
(0 -0 0.0001055408905)
(0 -0 0.0001090852885)
(0 -0 0.0001147660915)
(0 -0 0.0001227855066)
(0 -0 0.0001328771825)
(0 -0 0.0001444024654)
(0 -0 0.0001565079494)
(0 -0 0.0001682904595)
(0 -0 0.0001789358304)
(0 -0 0.0001878050768)
(0 -0 0.0001944656884)
(0 -0 0.0001986839654)
(0 -0 0.00020039569)
(0 -0 0.0001996676331)
(0 -0 0.000196658461)
(0 -0 0.0001915841928)
(0 -0 0.0001846905711)
(0 -0 0.0001762326362)
(0 -0 0.0001664606688)
(0 -0 0.0001556112669)
(0 -0 0.0001439022872)
(0 -0 0.0001315305212)
(0 -0 0.0001186711951)
(0 -0 0.0001054785772)
(0 -0 9.208724e-05)
(0 -0 7.86134955e-05)
(0 -0 6.515705332e-05)
(0 -0 5.180250026e-05)
(0 -0 3.862161458e-05)
(0 -0 2.567566399e-05)
(0 -0 1.298560103e-05)
(0 -0 5.936865209e-07)
(0 -0 -1.149997662e-05)
(0 -0 -2.329594493e-05)
(0 -0 -3.474483665e-05)
(0 -0 -4.583190247e-05)
(0 -0 -5.655213861e-05)
(0 -0 -6.690587722e-05)
(0 -0 -7.68976886e-05)
(0 -0 -8.653578585e-05)
(0 -0 -9.583161514e-05)
(0 -0 -0.0001047995445)
(0 -0 -0.0001134565749)
(0 -0 -0.0001218220465)
(0 -0 -0.000129917341)
(0 -0 -0.0001377656042)
(0 -0 -0.0001453914818)
(0 -0 7.752254485e-05)
(0 -0 7.781723434e-05)
(0 -0 7.819452311e-05)
(0 -0 7.860944326e-05)
(0 -0 7.90688941e-05)
(0 -0 7.965456732e-05)
(0 -0 8.051353576e-05)
(0 -0 8.182071044e-05)
(0 -0 8.37292675e-05)
(0 -0 8.63291401e-05)
(0 -0 8.962646652e-05)
(0 -0 9.354567041e-05)
(0 -0 9.794739476e-05)
(0 -0 0.0001026532351)
(0 -0 0.0001074703318)
(0 -0 0.0001122118569)
(0 -0 0.0001167115161)
(0 -0 0.00012083186)
(0 -0 0.0001244673783)
(0 -0 0.0001275438574)
(0 -0 0.0001300154345)
(0 -0 0.0001318604834)
(0 -0 0.0001330771416)
(0 -0 0.0001336790004)
(0 -0 0.0001336912443)
(0 -0 0.0001331473799)
(0 -0 0.0001320864608)
(0 -0 0.0001305512411)
(0 -0 0.0001285832389)
(0 -0 0.00012622695)
(0 -0 0.0001235271157)
(0 -0 0.0001205256254)
(0 -0 0.000117267742)
(0 -0 0.0001137664076)
(0 -0 0.0001100455967)
(0 -0 0.0001061670471)
(0 -0 0.0001021959104)
(0 -0 9.816298636e-05)
(0 -0 9.408952655e-05)
(0 -0 8.99929252e-05)
(0 -0 8.588821961e-05)
(0 -0 8.178845041e-05)
(0 -0 7.770469722e-05)
(0 -0 7.364609991e-05)
(0 -0 6.961992133e-05)
(0 -0 6.563162638e-05)
(0 -0 6.168496434e-05)
(0 -0 5.778205636e-05)
(0 -0 5.392348941e-05)
(0 -0 5.010841472e-05)
(0 -0 6.056161653e-05)
(0 -0 6.07482855e-05)
(0 -0 6.099849204e-05)
(0 -0 6.129907996e-05)
(0 -0 6.163550967e-05)
(0 -0 6.199008608e-05)
(0 -0 6.234730581e-05)
(0 -0 6.270350302e-05)
(0 -0 6.307266394e-05)
(0 -0 6.348439651e-05)
(0 -0 6.397658438e-05)
(0 -0 6.458687188e-05)
(0 -0 6.534540829e-05)
(0 -0 6.626992164e-05)
(0 -0 6.736358626e-05)
(0 -0 6.861552246e-05)
(0 -0 7.000316785e-05)
(0 -0 7.149556576e-05)
(0 -0 7.305679599e-05)
(0 -0 7.464906321e-05)
(0 -0 7.623519799e-05)
(0 -0 7.778049465e-05)
(0 -0 7.92539189e-05)
(0 -0 8.062878706e-05)
(0 -0 8.188302589e-05)
(0 -0 8.299913244e-05)
(0 -0 8.396309979e-05)
(0 -0 8.476559384e-05)
(0 -0 8.540397287e-05)
(0 -0 8.58761981e-05)
(0 -0 8.618263309e-05)
(0 -0 8.632508544e-05)
(0 -0 8.630395994e-05)
(0 -0 8.61507216e-05)
(0 -0 8.587623359e-05)
(0 -0 8.548757558e-05)
(0 -0 8.499221081e-05)
(0 -0 8.43980056e-05)
(0 -0 8.371297457e-05)
(0 -0 8.294512797e-05)
(0 -0 8.210234207e-05)
(0 -0 8.119226852e-05)
(0 -0 8.022225278e-05)
(0 -0 7.919926235e-05)
(0 -0 7.81298338e-05)
(0 -0 7.702003348e-05)
(0 -0 7.587542548e-05)
(0 -0 7.470104628e-05)
(0 -0 7.350138736e-05)
(0 -0 7.228038528e-05)
(0 -0 4.756972698e-05)
(0 -0 4.769933677e-05)
(0 -0 4.787095181e-05)
(0 -0 4.807878714e-05)
(0 -0 4.831909107e-05)
(0 -0 4.858705749e-05)
(0 -0 4.887543229e-05)
(0 -0 4.917534866e-05)
(0 -0 4.947819752e-05)
(0 -0 4.977721453e-05)
(0 -0 5.006849423e-05)
(0 -0 5.035154121e-05)
(0 -0 5.062922675e-05)
(0 -0 5.090702698e-05)
(0 -0 5.119176532e-05)
(0 -0 5.149027822e-05)
(0 -0 5.180831718e-05)
(0 -0 5.214980901e-05)
(0 -0 5.251647808e-05)
(0 -0 5.290778545e-05)
(0 -0 5.332110826e-05)
(0 -0 5.375207997e-05)
(0 -0 5.419498484e-05)
(0 -0 5.464322591e-05)
(0 -0 5.508930083e-05)
(0 -0 5.552577562e-05)
(0 -0 5.59465008e-05)
(0 -0 5.634467386e-05)
(0 -0 5.671709952e-05)
(0 -0 5.7058822e-05)
(0 -0 5.736475477e-05)
(0 -0 5.763147579e-05)
(0 -0 5.785634721e-05)
(0 -0 5.803796048e-05)
(0 -0 5.817567682e-05)
(0 -0 5.826934117e-05)
(0 -0 5.831922369e-05)
(0 -0 5.832600638e-05)
(0 -0 5.8290754e-05)
(0 -0 5.821486763e-05)
(0 -0 5.810002617e-05)
(0 -0 5.794814477e-05)
(0 -0 5.776134022e-05)
(0 -0 5.754189084e-05)
(0 -0 5.729219422e-05)
(0 -0 5.701472828e-05)
(0 -0 5.671201533e-05)
(0 -0 5.638658824e-05)
(0 -0 5.604095887e-05)
(0 -0 5.567758941e-05)
(0 -0 3.746628258e-05)
(0 -0 3.755365657e-05)
(0 -0 3.76679877e-05)
(0 -0 3.780545044e-05)
(0 -0 3.796393682e-05)
(0 -0 3.814141682e-05)
(0 -0 3.833524124e-05)
(0 -0 3.854219395e-05)
(0 -0 3.875874775e-05)
(0 -0 3.898117078e-05)
(0 -0 3.920559835e-05)
(0 -0 3.942825606e-05)
(0 -0 3.964579887e-05)
(0 -0 3.98556003e-05)
(0 -0 4.005588999e-05)
(0 -0 4.024574589e-05)
(0 -0 4.042498574e-05)
(0 -0 4.059399418e-05)
(0 -0 4.07535129e-05)
(0 -0 4.090443517e-05)
(0 -0 4.104760051e-05)
(0 -0 4.118373264e-05)
(0 -0 4.131293933e-05)
(0 -0 4.143530512e-05)
(0 -0 4.155096533e-05)
(0 -0 4.165952175e-05)
(0 -0 4.176107336e-05)
(0 -0 4.185493738e-05)
(0 -0 4.193711318e-05)
(0 -0 4.200605265e-05)
(0 -0 4.20607766e-05)
(0 -0 4.210046244e-05)
(0 -0 4.212437855e-05)
(0 -0 4.21318949e-05)
(0 -0 4.212250415e-05)
(0 -0 4.209583978e-05)
(0 -0 4.205168597e-05)
(0 -0 4.19899858e-05)
(0 -0 4.191084218e-05)
(0 -0 4.181451432e-05)
(0 -0 4.170141352e-05)
(0 -0 4.157210058e-05)
(0 -0 4.142728105e-05)
(0 -0 4.126779538e-05)
(0 -0 4.109460575e-05)
(0 -0 4.090878223e-05)
(0 -0 4.071148873e-05)
(0 -0 4.050396794e-05)
(0 -0 4.028752567e-05)
(0 -0 4.006351514e-05)
(0 -0 2.938721185e-05)
(0 -0 2.944876683e-05)
(0 -0 2.952793175e-05)
(0 -0 2.962197011e-05)
(0 -0 2.972942789e-05)
(0 -0 2.984893278e-05)
(0 -0 2.997877952e-05)
(0 -0 3.011701901e-05)
(0 -0 3.026165758e-05)
(0 -0 3.041071804e-05)
(0 -0 3.056221016e-05)
(0 -0 3.071412456e-05)
(0 -0 3.086447693e-05)
(0 -0 3.101136955e-05)
(0 -0 3.115304398e-05)
(0 -0 3.128792386e-05)
(0 -0 3.141464867e-05)
(0 -0 3.15321011e-05)
(0 -0 3.163939193e-05)
(0 -0 3.173591836e-05)
(0 -0 3.182101237e-05)
(0 -0 3.189427469e-05)
(0 -0 3.195579426e-05)
(0 -0 3.200555347e-05)
(0 -0 3.204395209e-05)
(0 -0 3.207111531e-05)
(0 -0 3.208615352e-05)
(0 -0 3.208885749e-05)
(0 -0 3.207910971e-05)
(0 -0 3.205681223e-05)
(0 -0 3.202189098e-05)
(0 -0 3.19743e-05)
(0 -0 3.191402496e-05)
(0 -0 3.184109023e-05)
(0 -0 3.17555671e-05)
(0 -0 3.165758086e-05)
(0 -0 3.154731464e-05)
(0 -0 3.142501428e-05)
(0 -0 3.129099394e-05)
(0 -0 3.114564044e-05)
(0 -0 3.098941584e-05)
(0 -0 3.082285821e-05)
(0 -0 3.064658104e-05)
(0 -0 3.046127101e-05)
(0 -0 3.026768411e-05)
(0 -0 3.00666407e-05)
(0 -0 2.985901954e-05)
(0 -0 2.964575087e-05)
(0 -0 2.942780867e-05)
(0 -0 2.920620241e-05)
(0 -0 2.278685346e-05)
(0 -0 2.283171868e-05)
(0 -0 2.288826415e-05)
(0 -0 2.295444242e-05)
(0 -0 2.302922583e-05)
(0 -0 2.311166018e-05)
(0 -0 2.320057334e-05)
(0 -0 2.329463154e-05)
(0 -0 2.339246304e-05)
(0 -0 2.349270067e-05)
(0 -0 2.359397908e-05)
(0 -0 2.36949461e-05)
(0 -0 2.379429083e-05)
(0 -0 2.389076761e-05)
(0 -0 2.398320706e-05)
(0 -0 2.407052362e-05)
(0 -0 2.415170697e-05)
(0 -0 2.422588093e-05)
(0 -0 2.429205909e-05)
(0 -0 2.434948979e-05)
(0 -0 2.439772486e-05)
(0 -0 2.443628758e-05)
(0 -0 2.446509158e-05)
(0 -0 2.44837845e-05)
(0 -0 2.449171296e-05)
(0 -0 2.448855534e-05)
(0 -0 2.447410354e-05)
(0 -0 2.444820678e-05)
(0 -0 2.441075919e-05)
(0 -0 2.436169748e-05)
(0 -0 2.430100039e-05)
(0 -0 2.422868929e-05)
(0 -0 2.414482891e-05)
(0 -0 2.404952958e-05)
(0 -0 2.39429496e-05)
(0 -0 2.382529726e-05)
(0 -0 2.369683259e-05)
(0 -0 2.355786964e-05)
(0 -0 2.340877882e-05)
(0 -0 2.324998817e-05)
(0 -0 2.308198342e-05)
(0 -0 2.290530722e-05)
(0 -0 2.272055791e-05)
(0 -0 2.252838768e-05)
(0 -0 2.232949953e-05)
(0 -0 2.212464325e-05)
(0 -0 2.191461045e-05)
(0 -0 2.170022904e-05)
(0 -0 2.148235706e-05)
(0 -0 2.126187612e-05)
(0 -0 1.730841238e-05)
(0 -0 1.734190498e-05)
(0 -0 1.738319191e-05)
(0 -0 1.743068279e-05)
(0 -0 1.748363084e-05)
(0 -0 1.754136589e-05)
(0 -0 1.760307608e-05)
(0 -0 1.766783905e-05)
(0 -0 1.773469573e-05)
(0 -0 1.780267193e-05)
(0 -0 1.787077792e-05)
(0 -0 1.793802308e-05)
(0 -0 1.800344112e-05)
(0 -0 1.806610853e-05)
(0 -0 1.812515141e-05)
(0 -0 1.817975596e-05)
(0 -0 1.822905939e-05)
(0 -0 1.827235141e-05)
(0 -0 1.83090981e-05)
(0 -0 1.833868801e-05)
(0 -0 1.836085757e-05)
(0 -0 1.837521985e-05)
(0 -0 1.838110231e-05)
(0 -0 1.837807008e-05)
(0 -0 1.8365801e-05)
(0 -0 1.834402625e-05)
(0 -0 1.831252209e-05)
(0 -0 1.827110715e-05)
(0 -0 1.821964092e-05)
(0 -0 1.815802395e-05)
(0 -0 1.808619876e-05)
(0 -0 1.800415112e-05)
(0 -0 1.791191143e-05)
(0 -0 1.780955623e-05)
(0 -0 1.769720986e-05)
(0 -0 1.757504618e-05)
(0 -0 1.744329011e-05)
(0 -0 1.730221901e-05)
(0 -0 1.715216359e-05)
(0 -0 1.699350844e-05)
(0 -0 1.682669196e-05)
(0 -0 1.665220571e-05)
(0 -0 1.647059302e-05)
(0 -0 1.628244675e-05)
(0 -0 1.608840597e-05)
(0 -0 1.588915183e-05)
(0 -0 1.568540253e-05)
(0 -0 1.547790778e-05)
(0 -0 1.526744275e-05)
(0 -0 1.50548015e-05)
(0 -0 1.270229246e-05)
(0 -0 1.2727877e-05)
(0 -0 1.275865105e-05)
(0 -0 1.279333866e-05)
(0 -0 1.283138189e-05)
(0 -0 1.287230054e-05)
(0 -0 1.291551952e-05)
(0 -0 1.296038518e-05)
(0 -0 1.300621183e-05)
(0 -0 1.305229282e-05)
(0 -0 1.309789964e-05)
(0 -0 1.314229245e-05)
(0 -0 1.318474601e-05)
(0 -0 1.322452857e-05)
(0 -0 1.326092517e-05)
(0 -0 1.329329243e-05)
(0 -0 1.332108733e-05)
(0 -0 1.334372137e-05)
(0 -0 1.336086503e-05)
(0 -0 1.337211223e-05)
(0 -0 1.337684377e-05)
(0 -0 1.337458082e-05)
(0 -0 1.336495178e-05)
(0 -0 1.334762879e-05)
(0 -0 1.332232237e-05)
(0 -0 1.328877941e-05)
(0 -0 1.324678093e-05)
(0 -0 1.319614231e-05)
(0 -0 1.313671394e-05)
(0 -0 1.306838209e-05)
(0 -0 1.299107042e-05)
(0 -0 1.290474163e-05)
(0 -0 1.280939942e-05)
(0 -0 1.270509025e-05)
(0 -0 1.259190535e-05)
(0 -0 1.246998256e-05)
(0 -0 1.233950802e-05)
(0 -0 1.22007176e-05)
(0 -0 1.205389791e-05)
(0 -0 1.189938707e-05)
(0 -0 1.173757487e-05)
(0 -0 1.156890223e-05)
(0 -0 1.139385977e-05)
(0 -0 1.12129855e-05)
(0 -0 1.102686142e-05)
(0 -0 1.083610947e-05)
(0 -0 1.06413867e-05)
(0 -0 1.044337954e-05)
(0 -0 1.024279758e-05)
(0 -0 1.004036681e-05)
(0 -0 8.790297782e-06)
(0 -0 8.810280096e-06)
(0 -0 8.833674629e-06)
(0 -0 8.859429897e-06)
(0 -0 8.887117552e-06)
(0 -0 8.91638525e-06)
(0 -0 8.946816047e-06)
(0 -0 8.977936121e-06)
(0 -0 9.009244344e-06)
(0 -0 9.04021927e-06)
(0 -0 9.070308895e-06)
(0 -0 9.09893308e-06)
(0 -0 9.125526075e-06)
(0 -0 9.149565503e-06)
(0 -0 9.170533767e-06)
(0 -0 9.187910635e-06)
(0 -0 9.201312676e-06)
(0 -0 9.210346351e-06)
(0 -0 9.214464758e-06)
(0 -0 9.213203111e-06)
(0 -0 9.206178822e-06)
(0 -0 9.193037484e-06)
(0 -0 9.173455304e-06)
(0 -0 9.14713842e-06)
(0 -0 9.113820665e-06)
(0 -0 9.073264215e-06)
(0 -0 9.025259683e-06)
(0 -0 8.969626485e-06)
(0 -0 8.906213775e-06)
(0 -0 8.834901858e-06)
(0 -0 8.755604033e-06)
(0 -0 8.668268686e-06)
(0 -0 8.572881486e-06)
(0 -0 8.469467568e-06)
(0 -0 8.358093666e-06)
(0 -0 8.238870128e-06)
(0 -0 8.111952765e-06)
(0 -0 7.977544469e-06)
(0 -0 7.835896579e-06)
(0 -0 7.687309827e-06)
(0 -0 7.532134693e-06)
(0 -0 7.370771017e-06)
(0 -0 7.203666767e-06)
(0 -0 7.031315848e-06)
(0 -0 6.854254965e-06)
(0 -0 6.673059564e-06)
(0 -0 6.488338891e-06)
(0 -0 6.300730159e-06)
(0 -0 6.110892015e-06)
(0 -0 5.919497641e-06)
(0 -0 5.442880042e-06)
(0 -0 5.458700282e-06)
(0 -0 5.476709556e-06)
(0 -0 5.496034346e-06)
(0 -0 5.516339363e-06)
(0 -0 5.537359311e-06)
(0 -0 5.558783158e-06)
(0 -0 5.580256288e-06)
(0 -0 5.601400714e-06)
(0 -0 5.621820249e-06)
(0 -0 5.641108043e-06)
(0 -0 5.658842496e-06)
(0 -0 5.674566983e-06)
(0 -0 5.68786947e-06)
(0 -0 5.698382999e-06)
(0 -0 5.705729795e-06)
(0 -0 5.709439557e-06)
(0 -0 5.709110581e-06)
(0 -0 5.704376739e-06)
(0 -0 5.694885455e-06)
(0 -0 5.680307119e-06)
(0 -0 5.660333231e-06)
(0 -0 5.634674523e-06)
(0 -0 5.603063552e-06)
(0 -0 5.565255578e-06)
(0 -0 5.521028785e-06)
(0 -0 5.470184491e-06)
(0 -0 5.412547795e-06)
(0 -0 5.347968908e-06)
(0 -0 5.276325044e-06)
(0 -0 5.197522637e-06)
(0 -0 5.111499723e-06)
(0 -0 5.018228373e-06)
(0 -0 4.917717108e-06)
(0 -0 4.810013246e-06)
(0 -0 4.695205109e-06)
(0 -0 4.57342408e-06)
(0 -0 4.444846477e-06)
(0 -0 4.309695184e-06)
(0 -0 4.168240873e-06)
(0 -0 4.020802615e-06)
(0 -0 3.867747699e-06)
(0 -0 3.709490583e-06)
(0 -0 3.546490928e-06)
(0 -0 3.379250597e-06)
(0 -0 3.20830955e-06)
(0 -0 3.034240645e-06)
(0 -0 2.857643521e-06)
(0 -0 2.679137817e-06)
(0 -0 2.499356012e-06)
(0 -0 2.559076735e-06)
(0 -0 2.572096489e-06)
(0 -0 2.586498929e-06)
(0 -0 2.601501331e-06)
(0 -0 2.61682624e-06)
(0 -0 2.63226718e-06)
(0 -0 2.647591066e-06)
(0 -0 2.66253864e-06)
(0 -0 2.6768286e-06)
(0 -0 2.690152044e-06)
(0 -0 2.702181563e-06)
(0 -0 2.712603496e-06)
(0 -0 2.721103857e-06)
(0 -0 2.727329449e-06)
(0 -0 2.730914669e-06)
(0 -0 2.731520575e-06)
(0 -0 2.728819076e-06)
(0 -0 2.722489866e-06)
(0 -0 2.712223816e-06)
(0 -0 2.697722719e-06)
(0 -0 2.678699342e-06)
(0 -0 2.654880074e-06)
(0 -0 2.626006426e-06)
(0 -0 2.591836735e-06)
(0 -0 2.552147098e-06)
(0 -0 2.506731638e-06)
(0 -0 2.455402935e-06)
(0 -0 2.397993056e-06)
(0 -0 2.334355261e-06)
(0 -0 2.2643662e-06)
(0 -0 2.18792841e-06)
(0 -0 2.104972918e-06)
(0 -0 2.015461873e-06)
(0 -0 1.919391137e-06)
(0 -0 1.816792826e-06)
(0 -0 1.707737743e-06)
(0 -0 1.592337708e-06)
(0 -0 1.470747696e-06)
(0 -0 1.343167738e-06)
(0 -0 1.209844421e-06)
(0 -0 1.071071822e-06)
(0 -0 9.271916193e-07)
(0 -0 7.785922709e-07)
(0 -0 6.257071636e-07)
(0 -0 4.690116612e-07)
(0 -0 3.09018898e-07)
(0 -0 1.462743365e-07)
(0 -0 -1.865067157e-08)
(0 -0 -1.851660279e-07)
(0 -0 -3.526705286e-07)
(0 -0 7.255923205e-08)
(0 -0 8.36353778e-08)
(0 -0 9.555453638e-08)
(0 -0 1.075908521e-07)
(0 -0 1.195088158e-07)
(0 -0 1.311456697e-07)
(0 -0 1.423156983e-07)
(0 -0 1.528214558e-07)
(0 -0 1.624570493e-07)
(0 -0 1.709992513e-07)
(0 -0 1.781975076e-07)
(0 -0 1.83773768e-07)
(0 -0 1.874526858e-07)
(0 -0 1.889591884e-07)
(0 -0 1.880178909e-07)
(0 -0 1.843542232e-07)
(0 -0 1.776964409e-07)
(0 -0 1.67776895e-07)
(0 -0 1.543327986e-07)
(0 -0 1.371069697e-07)
(0 -0 1.15848776e-07)
(0 -0 9.031655427e-08)
(0 -0 6.027980156e-08)
(0 -0 2.552061872e-08)
(0 -0 -1.416545429e-08)
(0 -0 -5.896891321e-08)
(0 -0 -1.090655684e-07)
(0 -0 -1.646152716e-07)
(0 -0 -2.257600203e-07)
(0 -0 -2.926215782e-07)
(0 -0 -3.652988066e-07)
(0 -0 -4.43864864e-07)
(0 -0 -5.283643879e-07)
(0 -0 -6.188107227e-07)
(0 -0 -7.151832136e-07)
(0 -0 -8.174245485e-07)
(0 -0 -9.254381578e-07)
(0 -0 -1.03908575e-06)
(0 -0 -1.158185116e-06)
(0 -0 -1.282508331e-06)
(0 -0 -1.411780532e-06)
(0 -0 -1.545679472e-06)
(0 -0 -1.683836079e-06)
(0 -0 -1.825836189e-06)
(0 -0 -1.971223564e-06)
(0 -0 -2.11950426e-06)
(0 -0 -2.270152325e-06)
(0 -0 -2.422616618e-06)
(0 -0 -2.576328561e-06)
(0 -0 -2.730710581e-06)
(0 -0 -2.062371095e-06)
(0 -0 -2.05312402e-06)
(0 -0 -2.043449331e-06)
(0 -0 -2.033957747e-06)
(0 -0 -2.024841195e-06)
(0 -0 -2.016226447e-06)
(0 -0 -2.008253573e-06)
(0 -0 -2.001078379e-06)
(0 -0 -1.994865874e-06)
(0 -0 -1.989798491e-06)
(0 -0 -1.986077232e-06)
(0 -0 -1.983916697e-06)
(0 -0 -1.983538169e-06)
(0 -0 -1.985165837e-06)
(0 -0 -1.989025721e-06)
(0 -0 -1.995345022e-06)
(0 -0 -2.004350951e-06)
(0 -0 -2.016269705e-06)
(0 -0 -2.031325977e-06)
(0 -0 -2.049742291e-06)
(0 -0 -2.071737716e-06)
(0 -0 -2.09752578e-06)
(0 -0 -2.12731229e-06)
(0 -0 -2.161293755e-06)
(0 -0 -2.199656453e-06)
(0 -0 -2.242575806e-06)
(0 -0 -2.290215563e-06)
(0 -0 -2.342726428e-06)
(0 -0 -2.400244054e-06)
(0 -0 -2.462886549e-06)
(0 -0 -2.530751678e-06)
(0 -0 -2.603913926e-06)
(0 -0 -2.68242154e-06)
(0 -0 -2.766293587e-06)
(0 -0 -2.855517069e-06)
(0 -0 -2.950044071e-06)
(0 -0 -3.049788933e-06)
(0 -0 -3.154625487e-06)
(0 -0 -3.264384511e-06)
(0 -0 -3.378851597e-06)
(0 -0 -3.497765642e-06)
(0 -0 -3.620818147e-06)
(0 -0 -3.747653545e-06)
(0 -0 -3.877870801e-06)
(0 -0 -4.011026481e-06)
(0 -0 -4.146639354e-06)
(0 -0 -4.284196429e-06)
(0 -0 -4.423160336e-06)
(0 -0 -4.562977937e-06)
(0 -0 -4.703089889e-06)
(0 -0 -3.897637357e-06)
(0 -0 -3.889601498e-06)
(0 -0 -3.881405761e-06)
(0 -0 -3.873584836e-06)
(0 -0 -3.86629879e-06)
(0 -0 -3.859649522e-06)
(0 -0 -3.85374684e-06)
(0 -0 -3.848710264e-06)
(0 -0 -3.844668167e-06)
(0 -0 -3.841764044e-06)
(0 -0 -3.840158612e-06)
(0 -0 -3.840024844e-06)
(0 -0 -3.841541846e-06)
(0 -0 -3.844891932e-06)
(0 -0 -3.85026021e-06)
(0 -0 -3.85783431e-06)
(0 -0 -3.867803576e-06)
(0 -0 -3.880358341e-06)
(0 -0 -3.895689634e-06)
(0 -0 -3.913988716e-06)
(0 -0 -3.935445854e-06)
(0 -0 -3.960248297e-06)
(0 -0 -3.988578089e-06)
(0 -0 -4.020610424e-06)
(0 -0 -4.056512697e-06)
(0 -0 -4.096443915e-06)
(0 -0 -4.140553892e-06)
(0 -0 -4.188981852e-06)
(0 -0 -4.241854362e-06)
(0 -0 -4.299282744e-06)
(0 -0 -4.361360177e-06)
(0 -0 -4.428158679e-06)
(0 -0 -4.499726056e-06)
(0 -0 -4.576082856e-06)
(0 -0 -4.65721932e-06)
(0 -0 -4.743092316e-06)
(0 -0 -4.833622272e-06)
(0 -0 -4.92869016e-06)
(0 -0 -5.028134653e-06)
(0 -0 -5.131749663e-06)
(0 -0 -5.239282516e-06)
(0 -0 -5.350433003e-06)
(0 -0 -5.464853543e-06)
(0 -0 -5.582150691e-06)
(0 -0 -5.701888238e-06)
(0 -0 -5.823592015e-06)
(0 -0 -5.946756393e-06)
(0 -0 -6.070852468e-06)
(0 -0 -6.195337837e-06)
(0 -0 -6.319667679e-06)
(0 -0 -5.467976042e-06)
(0 -0 -5.460641412e-06)
(0 -0 -5.453272458e-06)
(0 -0 -5.446379122e-06)
(0 -0 -5.440104253e-06)
(0 -0 -5.434531411e-06)
(0 -0 -5.429747237e-06)
(0 -0 -5.425843919e-06)
(0 -0 -5.422920209e-06)
(0 -0 -5.421088205e-06)
(0 -0 -5.420475809e-06)
(0 -0 -5.421222089e-06)
(0 -0 -5.423471602e-06)
(0 -0 -5.427371961e-06)
(0 -0 -5.43307387e-06)
(0 -0 -5.440731215e-06)
(0 -0 -5.45050052e-06)
(0 -0 -5.462540478e-06)
(0 -0 -5.477011876e-06)
(0 -0 -5.494077332e-06)
(0 -0 -5.513900141e-06)
(0 -0 -5.536642278e-06)
(0 -0 -5.562462237e-06)
(0 -0 -5.591513423e-06)
(0 -0 -5.62394328e-06)
(0 -0 -5.659892761e-06)
(0 -0 -5.69949557e-06)
(0 -0 -5.742876779e-06)
(0 -0 -5.790150744e-06)
(0 -0 -5.841418474e-06)
(0 -0 -5.896764676e-06)
(0 -0 -5.95625468e-06)
(0 -0 -6.019931346e-06)
(0 -0 -6.08781196e-06)
(0 -0 -6.159885074e-06)
(0 -0 -6.236107238e-06)
(0 -0 -6.316399686e-06)
(0 -0 -6.400645078e-06)
(0 -0 -6.488684427e-06)
(0 -0 -6.580314402e-06)
(0 -0 -6.675285223e-06)
(0 -0 -6.773299446e-06)
(0 -0 -6.87401196e-06)
(0 -0 -6.977031467e-06)
(0 -0 -7.08192364e-06)
(0 -0 -7.188216118e-06)
(0 -0 -7.295405492e-06)
(0 -0 -7.402966462e-06)
(0 -0 -7.510363282e-06)
(0 -0 -7.617063064e-06)
(0 -0 -6.792443598e-06)
(0 -0 -6.785716474e-06)
(0 -0 -6.779009801e-06)
(0 -0 -6.772799725e-06)
(0 -0 -6.767213036e-06)
(0 -0 -6.762318976e-06)
(0 -0 -6.758186585e-06)
(0 -0 -6.754887052e-06)
(0 -0 -6.752496126e-06)
(0 -0 -6.751101526e-06)
(0 -0 -6.750805369e-06)
(0 -0 -6.751719627e-06)
(0 -0 -6.753960779e-06)
(0 -0 -6.757647813e-06)
(0 -0 -6.76290257e-06)
(0 -0 -6.769850129e-06)
(0 -0 -6.778618511e-06)
(0 -0 -6.789338429e-06)
(0 -0 -6.802143395e-06)
(0 -0 -6.817169601e-06)
(0 -0 -6.834554891e-06)
(0 -0 -6.854436819e-06)
(0 -0 -6.876950531e-06)
(0 -0 -6.90222723e-06)
(0 -0 -6.930393392e-06)
(0 -0 -6.96157033e-06)
(0 -0 -6.995873501e-06)
(0 -0 -7.033411163e-06)
(0 -0 -7.074282298e-06)
(0 -0 -7.118573974e-06)
(0 -0 -7.166358389e-06)
(0 -0 -7.217689804e-06)
(0 -0 -7.272601429e-06)
(0 -0 -7.331102265e-06)
(0 -0 -7.393173838e-06)
(0 -0 -7.458766796e-06)
(0 -0 -7.527797416e-06)
(0 -0 -7.600144154e-06)
(0 -0 -7.67564436e-06)
(0 -0 -7.754091376e-06)
(0 -0 -7.835232258e-06)
(0 -0 -7.918766409e-06)
(0 -0 -8.00434549e-06)
(0 -0 -8.091574899e-06)
(0 -0 -8.180017046e-06)
(0 -0 -8.269196541e-06)
(0 -0 -8.358607566e-06)
(0 -0 -8.447724068e-06)
(0 -0 -8.536013217e-06)
(0 -0 -8.622950326e-06)
(0 -0 -7.890301765e-06)
(0 -0 -7.884003037e-06)
(0 -0 -7.877728832e-06)
(0 -0 -7.871925043e-06)
(0 -0 -7.866704355e-06)
(0 -0 -7.862123759e-06)
(0 -0 -7.858237482e-06)
(0 -0 -7.855099178e-06)
(0 -0 -7.852765349e-06)
(0 -0 -7.851303214e-06)
(0 -0 -7.850793024e-06)
(0 -0 -7.851323536e-06)
(0 -0 -7.852986896e-06)
(0 -0 -7.855876978e-06)
(0 -0 -7.860090007e-06)
(0 -0 -7.86572512e-06)
(0 -0 -7.872884259e-06)
(0 -0 -7.881672105e-06)
(0 -0 -7.892196353e-06)
(0 -0 -7.904567733e-06)
(0 -0 -7.918899048e-06)
(0 -0 -7.935303294e-06)
(0 -0 -7.953891595e-06)
(0 -0 -7.974771732e-06)
(0 -0 -7.99804746e-06)
(0 -0 -8.023818172e-06)
(0 -0 -8.052178293e-06)
(0 -0 -8.083215968e-06)
(0 -0 -8.117010995e-06)
(0 -0 -8.153632218e-06)
(0 -0 -8.193134602e-06)
(0 -0 -8.235556215e-06)
(0 -0 -8.280915131e-06)
(0 -0 -8.329206213e-06)
(0 -0 -8.380397726e-06)
(0 -0 -8.434427828e-06)
(0 -0 -8.491201005e-06)
(0 -0 -8.550584509e-06)
(0 -0 -8.612404912e-06)
(0 -0 -8.67644502e-06)
(0 -0 -8.742441507e-06)
(0 -0 -8.810083613e-06)
(0 -0 -8.879013189e-06)
(0 -0 -8.948826302e-06)
(0 -0 -9.019076711e-06)
(0 -0 -9.08928105e-06)
(0 -0 -9.158927006e-06)
(0 -0 -9.227484988e-06)
(0 -0 -9.294421095e-06)
(0 -0 -9.359212228e-06)
(0 -0 -8.776670464e-06)
(0 -0 -8.77066815e-06)
(0 -0 -8.76465262e-06)
(0 -0 -8.759043543e-06)
(0 -0 -8.753941749e-06)
(0 -0 -8.749394066e-06)
(0 -0 -8.745442408e-06)
(0 -0 -8.742125734e-06)
(0 -0 -8.739484271e-06)
(0 -0 -8.737567728e-06)
(0 -0 -8.736437514e-06)
(0 -0 -8.736162157e-06)
(0 -0 -8.736812378e-06)
(0 -0 -8.738459623e-06)
(0 -0 -8.741176925e-06)
(0 -0 -8.745039603e-06)
(0 -0 -8.750125281e-06)
(0 -0 -8.756513943e-06)
(0 -0 -8.764288352e-06)
(0 -0 -8.773534194e-06)
(0 -0 -8.784339172e-06)
(0 -0 -8.796791148e-06)
(0 -0 -8.810976113e-06)
(0 -0 -8.826976795e-06)
(0 -0 -8.84487207e-06)
(0 -0 -8.864736714e-06)
(0 -0 -8.886640861e-06)
(0 -0 -8.910648725e-06)
(0 -0 -8.936816562e-06)
(0 -0 -8.965190097e-06)
(0 -0 -8.995801669e-06)
(0 -0 -9.028667266e-06)
(0 -0 -9.063783417e-06)
(0 -0 -9.10112394e-06)
(0 -0 -9.140636498e-06)
(0 -0 -9.182239035e-06)
(0 -0 -9.225816137e-06)
(0 -0 -9.271215373e-06)
(0 -0 -9.318243764e-06)
(0 -0 -9.366664667e-06)
(0 -0 -9.416195508e-06)
(0 -0 -9.466506809e-06)
(0 -0 -9.517222649e-06)
(0 -0 -9.567922884e-06)
(0 -0 -9.618146519e-06)
(0 -0 -9.667396521e-06)
(0 -0 -9.715150098e-06)
(0 -0 -9.76086625e-06)
(0 -0 -9.80399569e-06)
(0 -0 -9.844039682e-06)
(0 -0 -9.463629169e-06)
(0 -0 -9.457831355e-06)
(0 -0 -9.451952687e-06)
(0 -0 -9.446389218e-06)
(0 -0 -9.44123146e-06)
(0 -0 -9.43651755e-06)
(0 -0 -9.43227889e-06)
(0 -0 -9.428541847e-06)
(0 -0 -9.425332594e-06)
(0 -0 -9.422685601e-06)
(0 -0 -9.420645743e-06)
(0 -0 -9.419263612e-06)
(0 -0 -9.418590703e-06)
(0 -0 -9.418678116e-06)
(0 -0 -9.419577517e-06)
(0 -0 -9.421341972e-06)
(0 -0 -9.424026058e-06)
(0 -0 -9.427686013e-06)
(0 -0 -9.432380245e-06)
(0 -0 -9.438169525e-06)
(0 -0 -9.445116131e-06)
(0 -0 -9.45328199e-06)
(0 -0 -9.462726681e-06)
(0 -0 -9.473506088e-06)
(0 -0 -9.485671883e-06)
(0 -0 -9.499271338e-06)
(0 -0 -9.514346804e-06)
(0 -0 -9.530934458e-06)
(0 -0 -9.549062295e-06)
(0 -0 -9.568747617e-06)
(0 -0 -9.589994235e-06)
(0 -0 -9.612789517e-06)
(0 -0 -9.637101262e-06)
(0 -0 -9.66287441e-06)
(0 -0 -9.690027612e-06)
(0 -0 -9.718449672e-06)
(0 -0 -9.747995814e-06)
(0 -0 -9.778483877e-06)
(0 -0 -9.809690716e-06)
(0 -0 -9.841349249e-06)
(0 -0 -9.873146639e-06)
(0 -0 -9.904724103e-06)
(0 -0 -9.93567834e-06)
(0 -0 -9.96556588e-06)
(0 -0 -9.993904316e-06)
(0 -0 -1.002018463e-05)
(0 -0 -1.004386793e-05)
(0 -0 -1.006437317e-05)
(0 -0 -1.008114773e-05)
(0 -0 -1.009381848e-05)
(0 -0 -9.961167735e-06)
(0 -0 -9.955513008e-06)
(0 -0 -9.94969005e-06)
(0 -0 -9.944072985e-06)
(0 -0 -9.938743136e-06)
(0 -0 -9.933731035e-06)
(0 -0 -9.92905895e-06)
(0 -0 -9.924742257e-06)
(0 -0 -9.920794787e-06)
(0 -0 -9.917237517e-06)
(0 -0 -9.914100547e-06)
(0 -0 -9.911418318e-06)
(0 -0 -9.909224795e-06)
(0 -0 -9.907552324e-06)
(0 -0 -9.906432675e-06)
(0 -0 -9.905897914e-06)
(0 -0 -9.905980569e-06)
(0 -0 -9.906713856e-06)
(0 -0 -9.908132226e-06)
(0 -0 -9.910271578e-06)
(0 -0 -9.913168383e-06)
(0 -0 -9.916857821e-06)
(0 -0 -9.921371785e-06)
(0 -0 -9.926737554e-06)
(0 -0 -9.932977287e-06)
(0 -0 -9.940107846e-06)
(0 -0 -9.948140271e-06)
(0 -0 -9.95707852e-06)
(0 -0 -9.966917498e-06)
(0 -0 -9.977640554e-06)
(0 -0 -9.9892167e-06)
(0 -0 -1.000159763e-05)
(0 -0 -1.001471457e-05)
(0 -0 -1.002847505e-05)
(0 -0 -1.004275947e-05)
(0 -0 -1.005741745e-05)
(0 -0 -1.007226405e-05)
(0 -0 -1.008707572e-05)
(0 -0 -1.01015867e-05)
(0 -0 -1.011548617e-05)
(0 -0 -1.012841732e-05)
(0 -0 -1.013997821e-05)
(0 -0 -1.014972646e-05)
(0 -0 -1.015718487e-05)
(0 -0 -1.016184561e-05)
(0 -0 -1.016320814e-05)
(0 -0 -1.016067573e-05)
(0 -0 -1.015371422e-05)
(0 -0 -1.014199076e-05)
(0 -0 -1.012460628e-05)
(0 -0 -1.027787742e-05)
(0 -0 -1.027233004e-05)