/*--------------------------------*- C++ -*----------------------------------*\
| =========                 |                                                 |
| \\      /  F ield         | foam-extend: Open Source CFD                    |
|  \\    /   O peration     | Version:     4.1                                |
|   \\  /    A nd           | Web:         http://www.foam-extend.org         |
|    \\/     M anipulation  |                                                 |
\*---------------------------------------------------------------------------*/
FoamFile
{
    version     2.0;
    format      ascii;
    class       regIOobject;
    location    "500000/uniform";
    object      profilingInfo;
}
// * * * * * * * * * * * * * * * * * * * * * * * * * * * * * * * * * * * * * //

profilingInfo
(

    {
        id              15;
        parentId        12;
        description     "Foam::Time::writeObject - outputTime";
        calls           241;
        totalTime       22.216517;
        childTime       0;
        onStack         1;
    }

    {
        id              12;
        parentId        1;
        description     "Foam::Time::writeObject";
        calls           24100;
        totalTime       22.286512;
        childTime       22.216517;
        onStack         1;
    }

    {
        id              1;
        description     "application::main";
        calls           1;
        totalTime       1637.883206;
        childTime       1318.45925;
        onStack         1;
    }

    {
        id              14;
        parentId        1;
        description     "FO::forcesCo::execute";
        calls           24099;
        totalTime       43.061801;
        childTime       0;
        onStack         0;
    }

    {
        id              4;
        parentId        2;
        description     "FO::forcesCo::start";
        calls           1;
        totalTime       0.00014;
        childTime       0;
        onStack         0;
    }

    {
        id              13;
        parentId        1;
        description     "FO::probes::execute";
        calls           24099;
        totalTime       1.481746;
        childTime       0;
        onStack         0;
    }

    {
        id              3;
        parentId        2;
        description     "FO::probes::start";
        calls           1;
        totalTime       0.001764;
        childTime       0;
        onStack         0;
    }

    {
        id              2;
        parentId        1;
        description     "functionObjectList::read";
        calls           1;
        totalTime       0.00208;
        childTime       0.001904;
        onStack         0;
    }

    {
        id              10;
        parentId        1;
        description     "fvMatrix::solve_T";
        calls           24100;
        totalTime       17.756312;
        childTime       14.93593;
        onStack         0;
    }

    {
        id              5;
        parentId        1;
        description     "fvMatrix::solve_U";
        calls           24100;
        totalTime       115.88642;
        childTime       105.476268;
        onStack         0;
    }

    {
        id              8;
        parentId        1;
        description     "fvMatrix::solve_p";
        calls           48200;
        totalTime       1117.984379;
        childTime       1110.415401;
        onStack         0;
    }

    {
        id              11;
        parentId        10;
        description     "lduMatrix::solver_T";
        calls           24100;
        totalTime       14.93593;
        childTime       0;
        onStack         0;
    }

    {
        id              6;
        parentId        5;
        description     "lduMatrix::solver_Ux";
        calls           24100;
        totalTime       53.072025;
        childTime       0;
        onStack         0;
    }

    {
        id              7;
        parentId        5;
        description     "lduMatrix::solver_Uy";
        calls           24100;
        totalTime       52.404243;
        childTime       0;
        onStack         0;
    }

    {
        id              9;
        parentId        8;
        description     "lduMatrix::solver_p";
        calls           48200;
        totalTime       1110.415401;
        childTime       0;
        onStack         0;
    }
);


// ************************************************************************* //
