/*--------------------------------*- C++ -*----------------------------------*\
| =========                 |                                                 |
| \\      /  F ield         | foam-extend: Open Source CFD                    |
|  \\    /   O peration     | Version:     4.1                                |
|   \\  /    A nd           | Web:         http://www.foam-extend.org         |
|    \\/     M anipulation  |                                                 |
\*---------------------------------------------------------------------------*/
FoamFile
{
    version     2.0;
    format      ascii;
    class       volScalarField;
    location    "40000";
    object      p;
}
// * * * * * * * * * * * * * * * * * * * * * * * * * * * * * * * * * * * * * //

dimensions      [0 2 -2 0 0 0 0];

internalField   nonuniform List<scalar> 
15920
(
2.055753399e-08
1.77318158e-08
1.553833682e-08
1.441682067e-08
1.361531962e-08
1.278794701e-08
1.198218496e-08
1.127602322e-08
1.067283576e-08
1.015089483e-08
9.699118872e-09
9.314000102e-09
8.990450563e-09
8.720349011e-09
8.494644247e-09
8.304692058e-09
8.142538491e-09
8.000993683e-09
7.873764109e-09
7.755540093e-09
7.641979683e-09
7.529622749e-09
7.415778759e-09
7.298408771e-09
7.176009537e-09
7.04750737e-09
6.912210708e-09
6.769646198e-09
6.619585545e-09
6.461501304e-09
6.29577985e-09
6.122349401e-09
5.94109606e-09
5.752032667e-09
5.555236186e-09
5.350783562e-09
5.138781038e-09
4.919323668e-09
4.692497777e-09
4.458407541e-09
4.21717692e-09
3.968940456e-09
3.713845894e-09
3.452061497e-09
3.183779397e-09
2.909216559e-09
2.628616208e-09
2.342249615e-09
2.050417284e-09
1.753449411e-09
1.526161061e-08
1.491029496e-08
1.434066435e-08
1.380946048e-08
1.329493063e-08
1.271632128e-08
1.209924071e-08
1.14991619e-08
1.094191265e-08
1.043363364e-08
9.978107705e-09
9.578747828e-09
9.235179144e-09
8.942724812e-09
8.694332331e-09
8.48237363e-09
8.299447305e-09
8.13868036e-09
7.993932927e-09
7.85993503e-09
7.732313067e-09
7.607530452e-09
7.482790364e-09
7.355927557e-09
7.225295134e-09
7.089632151e-09
6.947955606e-09
6.799711807e-09
6.64478261e-09
6.483533873e-09
6.314588899e-09
6.13794949e-09
5.953865393e-09
5.762372456e-09
5.563452939e-09
5.35700437e-09
5.143284641e-09
4.922228054e-09
4.693832875e-09
4.458280124e-09
4.21572646e-09
3.966276772e-09
3.710050057e-09
3.447204481e-09
3.177928949e-09
2.902437052e-09
2.620969059e-09
2.333794822e-09
2.041214654e-09
1.743559295e-09
1.474293395e-08
1.457934788e-08
1.413638973e-08
1.357527962e-08
1.303315801e-08
1.251311203e-08
1.19956172e-08
1.149212117e-08
1.101988835e-08
1.05854087e-08
1.018908581e-08
9.830947409e-09
9.510480435e-09
9.225484914e-09
8.972424715e-09
8.747191505e-09
8.545529112e-09
8.363178994e-09
8.196006616e-09
8.040150288e-09
7.892133518e-09
7.748917111e-09
7.607906545e-09
7.466932641e-09
7.324215458e-09
7.178329344e-09
7.028191674e-09
6.873034379e-09
6.712305913e-09
6.545491466e-09
6.371915446e-09
6.191378448e-09
6.003850225e-09
5.809220179e-09
5.607396093e-09
5.398552625e-09
5.182623043e-09
4.95942011e-09
4.728648939e-09
4.490559026e-09
4.245362054e-09
3.993185526e-09
3.734162975e-09
3.468461558e-09
3.196276601e-09
2.917829306e-09
2.63336937e-09
2.343177062e-09
2.047562923e-09
1.746867677e-09
1.375696623e-08
1.361389064e-08
1.33293434e-08
1.296822406e-08
1.259081944e-08
1.220880717e-08
1.181598155e-08
1.141931604e-08
1.103335375e-08
1.066741381e-08
1.032477638e-08
1.000677736e-08
9.714227641e-09
9.446872649e-09
9.20321782e-09
8.98092608e-09
8.777224558e-09
8.589141709e-09
8.413656955e-09
8.247836558e-09
8.088946278e-09
7.934520441e-09
7.782391192e-09
7.63069225e-09
7.477847962e-09
7.322553796e-09
7.163748774e-09
7.000579715e-09
6.832361073e-09
6.658543062e-09
6.478663885e-09
6.29237501e-09
6.099445722e-09
5.899693021e-09
5.693002043e-09
5.479190108e-09
5.257662152e-09
5.028702815e-09
4.792886892e-09
4.550049144e-09
4.30007555e-09
4.0430454e-09
3.779110978e-09
3.50843837e-09
3.231214268e-09
2.947659553e-09
2.658031532e-09
2.362621371e-09
2.06175338e-09
1.755784304e-09
1.312912533e-08
1.30581535e-08
1.288617357e-08
1.263443799e-08
1.234113829e-08
1.202784219e-08
1.170131388e-08
1.136813567e-08
1.10379356e-08
1.071862835e-08
1.041443521e-08
1.012740924e-08
9.858711438e-09
9.608656875e-09
9.376564096e-09
9.160962582e-09
8.95992738e-09
8.771312441e-09
8.592883222e-09
8.422415445e-09
8.257779377e-09
8.096999644e-09
7.938287725e-09
7.780054507e-09
7.620910487e-09
7.4596577e-09
7.295276174e-09
7.126908161e-09
6.953839576e-09
6.77547661e-09
6.591313022e-09
6.40093689e-09
6.20404163e-09
6.000347087e-09
5.789411438e-09
5.571011989e-09
5.345247021e-09
5.112327139e-09
4.872290628e-09
4.624964346e-09
4.370272197e-09
4.108298319e-09
3.839192384e-09
3.563120866e-09
3.280276766e-09
2.99089389e-09
2.695247701e-09
2.393651178e-09
2.086452439e-09
1.77403348e-09
1.265344955e-08
1.260318748e-08
1.247744636e-08
1.228626633e-08
1.205598821e-08
1.180466795e-08
1.153966413e-08
1.126582516e-08
1.098949137e-08
1.071687755e-08
1.045223311e-08
1.019800564e-08
9.955633829e-09
9.725839086e-09
9.508608811e-09
9.303280884e-09
9.108742005e-09
8.923604189e-09
8.74631944e-09
8.575263496e-09
8.408808774e-09
8.245383495e-09
8.083511992e-09
7.921838497e-09
7.759138759e-09
7.594323196e-09
7.426434814e-09
7.254642503e-09
7.078230277e-09
6.896581694e-09
6.709122978e-09
6.515415331e-09
6.315025543e-09
6.107612269e-09
5.893049663e-09
5.671177816e-09
5.441892999e-09
5.20510367e-09
4.960725039e-09
4.708705181e-09
4.449052607e-09
4.181845327e-09
3.907211924e-09
3.625318028e-09
3.336368747e-09
3.040613656e-09
2.738346574e-09
2.429902588e-09
2.115655461e-09
1.796015563e-09
1.22824812e-08
1.224457724e-08
1.215086883e-08
1.200660778e-08
1.182805872e-08
1.162745897e-08
1.141104997e-08
1.118334233e-08
1.094949292e-08
1.071461774e-08
1.048262351e-08
1.025606361e-08
1.003657086e-08
9.825137424e-09
9.622164637e-09
9.427506035e-09
9.240584341e-09
9.060524053e-09
8.886254103e-09
8.716584198e-09
8.550268546e-09
8.386059262e-09
8.222745963e-09
8.059183484e-09
7.894308647e-09
7.727146853e-09
7.55681502e-09
7.382517418e-09
7.203544671e-09
7.019289324e-09
6.829227254e-09
6.632832148e-09
6.429693997e-09
6.219498696e-09
6.001996693e-09
5.776944512e-09
5.544141906e-09
5.303457758e-09
5.054825494e-09
4.798221595e-09
4.533655873e-09
4.261185184e-09
3.980922719e-09
3.693035237e-09
3.397739119e-09
3.095299586e-09
2.786030206e-09
2.470290875e-09
2.148484883e-09
1.821055691e-09
1.199175477e-08
1.196272781e-08
1.189073769e-08
1.177838675e-08
1.163623839e-08
1.147286708e-08
1.129344187e-08
1.110202346e-08
1.090283221e-08
1.069992726e-08
1.049658433e-08
1.029515393e-08
1.009726096e-08
9.903982693e-09
9.715908991e-09
9.533179361e-09
9.355558053e-09
9.182528046e-09
9.013372564e-09
8.84723842e-09
8.683187925e-09
8.520244115e-09
8.357425582e-09
8.193773825e-09
8.028369661e-09
7.860351702e-09
7.688913735e-09
7.513318936e-09
7.332895337e-09
7.147011187e-09
6.955115782e-09
6.7567096e-09
6.551363317e-09
6.338709421e-09
6.118431972e-09
5.890265255e-09
5.654000085e-09
5.409488358e-09
5.156635086e-09
4.895389127e-09
4.625745076e-09
4.347753699e-09
4.06152794e-09
3.767240913e-09
3.465122211e-09
3.155456326e-09
2.83858173e-09
2.514888683e-09
2.18481571e-09
1.848845399e-09
1.176259054e-08
1.17395759e-08
1.16823997e-08
1.159249896e-08
1.147730775e-08
1.134295543e-08
1.1193352e-08
1.103174269e-08
1.086147109e-08
1.068575236e-08
1.05072906e-08
1.03281634e-08
1.014990275e-08
9.973591143e-09
9.799909002e-09
9.629167251e-09
9.461357576e-09
9.296216318e-09
9.133284907e-09
8.97196088e-09
8.811539672e-09
8.651250982e-09
8.490288871e-09
8.327872486e-09
8.163177776e-09
7.995453278e-09
7.823956634e-09
7.647987406e-09
7.466893031e-09
7.280066276e-09
7.086954726e-09
6.887056357e-09
6.67991844e-09
6.465140815e-09
6.242377789e-09
6.011337818e-09
5.771782019e-09
5.523525464e-09
5.266438544e-09
5.000448204e-09
4.725540626e-09
4.441764922e-09
4.14923553e-09
3.848132204e-09
3.538698805e-09
3.221242027e-09
2.896129683e-09
2.563787799e-09
2.224696419e-09
1.879384443e-09
1.158212682e-08
1.156345302e-08
1.151706482e-08
1.144381069e-08
1.134913359e-08
1.123743954e-08
1.111156524e-08
1.097401229e-08
1.082744306e-08
1.067444721e-08
1.051725335e-08
1.035764487e-08
1.019699902e-08
1.003633703e-08
9.876352653e-09
9.717435877e-09
9.559707284e-09
9.403062196e-09
9.247214519e-09
9.091737285e-09
8.936096753e-09
8.779696308e-09
8.621782812e-09
8.461783939e-09
8.298993287e-09
8.132668488e-09
7.96213613e-09
7.786746872e-09
7.605873214e-09
7.418919098e-09
7.225326481e-09
7.02457801e-09
6.816198947e-09
6.599761369e-09
6.374887263e-09
6.141249929e-09
5.898575812e-09
5.64664818e-09
5.385311141e-09
5.114472584e-09
4.834106594e-09
4.544256241e-09
4.245036337e-09
3.936635048e-09
3.619313919e-09
3.293406608e-09
2.95931651e-09
2.617513084e-09
2.268526801e-09
1.912942815e-09
1.144115183e-08
1.142574211e-08
1.138745764e-08
1.1326798e-08
1.124787796e-08
1.115394074e-08
1.104704682e-08
1.09291028e-08
1.080221382e-08
1.066845494e-08
1.052963792e-08
1.038725264e-08
1.024249173e-08
1.009627457e-08
9.949258787e-09
9.801853828e-09
9.654243674e-09
9.506417058e-09
9.358198352e-09
9.209286564e-09
9.059233246e-09
8.907568762e-09
8.753816894e-09
8.597255928e-09
8.437291185e-09
8.273301301e-09
8.104652137e-09
7.930714423e-09
7.750873072e-09
7.564534075e-09
7.37113009e-09
7.170125394e-09
6.961020333e-09
6.743355993e-09
6.516718779e-09
6.280744797e-09
6.035124465e-09
5.779607569e-09
5.514008315e-09
5.238209942e-09
4.95216905e-09
4.655919773e-09
4.349577395e-09
4.033340656e-09
3.707492355e-09
3.372398257e-09
3.028504387e-09
2.676332617e-09
2.316474495e-09
1.94958343e-09
1.133274695e-08
1.131985072e-08
1.128780591e-08
1.12369024e-08
1.117034174e-08
1.109056895e-08
1.099908328e-08
1.089731706e-08
1.078691466e-08
1.066952658e-08
1.05466151e-08
1.041940868e-08
1.028891816e-08
1.01559465e-08
1.00210888e-08
9.884737799e-09
9.747098505e-09
9.60821374e-09
9.467946077e-09
9.326097868e-09
9.182354919e-09
9.036257594e-09
8.887335523e-09
8.735034826e-09
8.578794465e-09
8.418029659e-09
8.252130712e-09
8.08048119e-09
7.902469853e-09
7.717496504e-09
7.524977391e-09
7.324351415e-09
7.115086403e-09
6.896685315e-09
6.668692632e-09
6.430700899e-09
6.182357418e-09
5.92337113e-09
5.653519592e-09
5.372655793e-09
5.080714568e-09
4.777718353e-09
4.463781923e-09
4.139115648e-09
3.804026897e-09
3.458919361e-09
3.104290157e-09
2.740724604e-09
2.368888652e-09
1.989519135e-09
1.125158617e-08
1.124067287e-08
1.12135512e-08
1.117038103e-08
1.111370832e-08
1.1045411e-08
1.096658185e-08
1.087828902e-08
1.078181063e-08
1.067845575e-08
1.056939923e-08
1.045564343e-08
1.033802934e-08
1.021723953e-08
1.009379243e-08
9.968041107e-09
9.840166746e-09
9.710241836e-09
9.57821438e-09
9.4438563e-09
9.306890664e-09
9.166946314e-09
9.023588631e-09
8.876325252e-09
8.724617356e-09
8.567893987e-09
8.405559283e-09
8.237001767e-09
8.061603209e-09
7.878745698e-09
7.687818454e-09
7.488225115e-09
7.279391297e-09
7.060772337e-09
6.831861365e-09
6.592197778e-09
6.341376067e-09
6.079054958e-09
5.804966707e-09
5.518926268e-09
5.220839982e-09
4.910713423e-09
4.588657967e-09
4.25489561e-09
3.909761522e-09
3.553703951e-09
3.187281191e-09
2.811155438e-09
2.426083524e-09
2.032904709e-09
1.119347312e-08
1.118416026e-08
1.116100882e-08
1.112409595e-08
1.107548216e-08
1.101663363e-08
1.094834932e-08
1.087142283e-08
1.078684518e-08
1.069565161e-08
1.059878017e-08
1.049703919e-08
1.039111616e-08
1.028157636e-08
1.016885537e-08
1.005325574e-08
9.934962574e-09
9.814003816e-09
9.690319486e-09
9.563735427e-09
9.433993404e-09
9.300754116e-09
9.163605039e-09
9.022072847e-09
8.875633105e-09
8.723721719e-09
8.565742668e-09
8.401074791e-09
8.229079543e-09
8.049108926e-09
7.860513273e-09
7.662649245e-09
7.454888347e-09
7.236626026e-09
7.007291438e-09
6.766357908e-09
6.513354048e-09
6.247875417e-09
5.9695965e-09
5.678282701e-09
5.373801899e-09
5.056135091e-09
4.725385527e-09
4.381785707e-09
4.025701573e-09
3.657633329e-09
3.278212421e-09
2.888194396e-09
2.488447541e-09
2.079937537e-09
1.115502613e-08
1.114703543e-08
1.112715391e-08
1.109540617e-08
1.105348511e-08
1.100255247e-08
1.094319397e-08
1.087599523e-08
1.080171954e-08
1.072118576e-08
1.063514027e-08
1.054422763e-08
1.044900114e-08
1.034992174e-08
1.024734571e-08
1.014151737e-08
1.003257219e-08
9.920533525e-09
9.805330279e-09
9.686797325e-09
9.564680871e-09
9.43864794e-09
9.308294037e-09
9.173151674e-09
9.032698137e-09
8.886363089e-09
8.733535519e-09
8.573570471e-09
8.405796355e-09
8.229522676e-09
8.04404802e-09
7.848668592e-09
7.642687595e-09
7.425425626e-09
7.196232134e-09
6.954497974e-09
6.699669019e-09
6.431260679e-09
6.148873093e-09
5.85220659e-09
5.541076896e-09
5.215429412e-09
4.87535182e-09
4.521084123e-09
4.153025264e-09
3.771735434e-09
3.377933388e-09
2.972488261e-09
2.556405657e-09
2.13080824e-09
1.113346199e-08
1.11265812e-08
1.11094456e-08
1.108204691e-08
1.104578822e-08
1.100159961e-08
1.094991612e-08
1.089117381e-08
1.08259462e-08
1.075488118e-08
1.067856999e-08
1.059752314e-08
1.051217919e-08
1.042290341e-08
1.03299763e-08
1.023358561e-08
1.013382513e-08
1.003069544e-08
9.924106903e-09
9.813883171e-09
9.69976485e-09
9.581415449e-09
9.458426974e-09
9.330325339e-09
9.196575947e-09
9.05658947e-09
8.909727804e-09
8.755310161e-09
8.592619577e-09
8.420910054e-09
8.239414469e-09
8.047353482e-09
7.843945677e-09
7.628419147e-09
7.400024622e-09
7.158050233e-09
6.90183787e-09
6.630801026e-09
6.344443817e-09
6.042380746e-09
5.724356546e-09
5.39026525e-09
5.040167499e-09
4.674304909e-09
4.293110252e-09
3.897212195e-09
3.487433486e-09
3.064781784e-09
2.630432692e-09
2.185705124e-09
1.112650085e-08
1.112054089e-08
1.110574376e-08
1.108208126e-08
1.105071262e-08
1.101238345e-08
1.096740425e-08
1.091609152e-08
1.08589208e-08
1.079638608e-08
1.072894235e-08
1.065698882e-08
1.058086925e-08
1.050086697e-08
1.041719475e-08
1.032998687e-08
1.023929579e-08
1.014509126e-08
1.004726058e-08
9.945610196e-09
9.839867698e-09
9.729684529e-09
9.614639179e-09
9.494240636e-09
9.367932171e-09
9.235095463e-09
9.095055068e-09
8.947083286e-09
8.790405671e-09
8.624207452e-09
8.447641125e-09
8.259835439e-09
8.059906064e-09
7.846968197e-09
7.620151327e-09
7.378616294e-09
7.121574709e-09
6.848310606e-09
6.558204076e-09
6.250756341e-09
5.925615539e-09
5.582602133e-09
5.221732631e-09
4.843240056e-09
4.447589405e-09
4.035486263e-09
3.60787686e-09
3.165938205e-09
2.711057493e-09
2.244800749e-09
1.113209528e-08
1.112693342e-08
1.111416798e-08
1.109376455e-08
1.106668182e-08
1.103351905e-08
1.099450714e-08
1.094988175e-08
1.089999826e-08
1.084524459e-08
1.078597607e-08
1.072250173e-08
1.065508536e-08
1.058394038e-08
1.050922023e-08
1.043101041e-08
1.034932412e-08
1.02640999e-08
1.017520032e-08
1.008241135e-08
9.985442328e-09
9.883926629e-09
9.777422794e-09
9.665416101e-09
9.54732045e-09
9.422480637e-09
9.290175114e-09
9.149619378e-09
8.999970238e-09
8.840331229e-09
8.669759502e-09
8.487274509e-09
8.291868857e-09
8.082521699e-09
7.858214992e-09
7.61795291e-09
7.360784562e-09
7.085830023e-09
6.792309425e-09
6.479574628e-09
6.147142572e-09
5.794729071e-09
5.422281317e-09
5.030006978e-09
4.618397465e-09
4.188242689e-09
3.740634694e-09
3.276957873e-09
2.798864269e-09
2.308233555e-09
1.11484477e-08
1.11440306e-08
1.113309315e-08
1.111559606e-08
1.10923424e-08
1.106382015e-08
1.103019896e-08
1.099164965e-08
1.094844352e-08
1.090088515e-08
1.084925098e-08
1.079377673e-08
1.073466003e-08
1.067205604e-08
1.060606799e-08
1.053673915e-08
1.046404765e-08
1.038790311e-08
1.030814379e-08
1.022453431e-08
1.013676392e-08
1.004444529e-08
9.947113798e-09
9.844227052e-09
9.735164819e-09
9.619229335e-09
9.495646183e-09
9.363565905e-09
9.222066635e-09
9.070158056e-09
8.906787111e-09
8.730845889e-09
8.541182186e-09
8.336613263e-09
8.115943322e-09
7.877985139e-09
7.621586247e-09
7.345659831e-09
7.049220257e-09
6.731422787e-09
6.391606578e-09
6.029339488e-09
5.644462567e-09
5.237131417e-09
4.807851029e-09
4.357500235e-09
3.887341758e-09
3.399014141e-09
2.89450278e-09
2.376088865e-09
1.117407845e-08
1.11703343e-08
1.116104682e-08
1.114617559e-08
1.112639377e-08
1.110210013e-08
1.107341906e-08
1.104047485e-08
1.10034768e-08
1.09626624e-08
1.091824481e-08
1.087040203e-08
1.081927933e-08
1.076498511e-08
1.070758179e-08
1.064707779e-08
1.058342182e-08
1.051649864e-08
1.0446125e-08
1.037204598e-08
1.029393168e-08
1.021137433e-08
1.012388561e-08
1.003089423e-08
9.931743771e-09
9.825690901e-09
9.711904047e-09
9.589462863e-09
9.45735872e-09
9.314496665e-09
9.159699307e-09
8.991713224e-09
8.809218538e-09
8.610842378e-09
8.395176997e-09
8.160803271e-09
7.906320253e-09
7.63038129e-09
7.3317369e-09
7.009284191e-09
6.662121972e-09
6.289609967e-09
5.891429577e-09
5.467642594e-09
5.018743166e-09
4.545697496e-09
4.049965119e-09
3.533495733e-09
2.998696593e-09
2.44836764e-09
1.120758565e-08
1.120445262e-08
1.119667559e-08
1.118421658e-08
1.116763353e-08
1.114725119e-08
1.112316226e-08
1.10954586e-08
1.106430273e-08
1.102988005e-08
1.099235502e-08
1.09518618e-08
1.090850574e-08
1.086235921e-08
1.081345311e-08
1.076176892e-08
1.070723272e-08
1.064971007e-08
1.058900099e-08
1.052483505e-08
1.045686663e-08
1.03846703e-08
1.030773634e-08
1.022546625e-08
1.013716843e-08
1.004205395e-08
9.939232764e-09
9.827710515e-09
9.706386326e-09
9.574052027e-09
9.429393403e-09
9.270994193e-09
9.097343677e-09
8.906848826e-09
8.697852097e-09
8.468656e-09
8.217555544e-09
7.94287957e-09
7.643041684e-09
7.316601022e-09
6.962332314e-09
6.579303717e-09
6.166959542e-09
5.725203391e-09
5.254475428e-09
4.755815877e-09
4.230905482e-09
3.682073214e-09
3.112262422e-09
2.524949424e-09
1.124768698e-08
1.124511992e-08
1.123874584e-08
1.122853179e-08
1.12149328e-08
1.119821181e-08
1.117844073e-08
1.115569033e-08
1.113008882e-08
1.110178258e-08
1.107089992e-08
1.103754296e-08
1.100178807e-08
1.096368175e-08
1.09232326e-08
1.088040365e-08
1.083510601e-08
1.078719307e-08
1.073645461e-08
1.068261075e-08
1.062530584e-08
1.056410226e-08
1.049847404e-08
1.042780031e-08
1.035135851e-08
1.026831759e-08
1.017773128e-08
1.007853172e-08
9.969523872e-09
9.849381078e-09
9.716642691e-09
9.569714407e-09
9.406872487e-09
9.226273099e-09
9.025968265e-09
8.803930047e-09
8.558084734e-09
8.286358742e-09
7.98673776e-09
7.657340225e-09
7.296505312e-09
6.902894359e-09
6.475602855e-09
6.014277733e-09
5.51923188e-09
4.991544752e-09
4.433135197e-09
3.846790832e-09
3.236138599e-09
2.60554463e-09
1.129319294e-08
1.129115673e-08
1.128609985e-08
1.127799674e-08
1.126721028e-08
1.125395147e-08
1.123827992e-08
1.122025434e-08
1.1199979e-08
1.117757212e-08
1.115313664e-08
1.112675298e-08
1.109847869e-08
1.106834408e-08
1.103634473e-08
1.100243402e-08
1.096651654e-08
1.092844171e-08
1.088799705e-08
1.08449012e-08
1.079879645e-08
1.074924104e-08
1.069570088e-08
1.063754077e-08
1.057401515e-08
1.05042583e-08
1.042727432e-08
1.034192697e-08
1.024692982e-08
1.014083729e-08
1.002203722e-08
9.888746019e-09
9.739007718e-09
9.570698352e-09
9.381537787e-09
9.169111176e-09
8.930902666e-09
8.664344105e-09
8.366881521e-09
8.036061827e-09
7.669641356e-09
7.26571632e-09
6.822872979e-09
6.340352008e-09
5.818217237e-09
5.25751382e-09
4.660395492e-09
4.030195895e-09
3.371416862e-09
2.689609667e-09
1.134298684e-08
1.134145311e-08
1.133764371e-08
1.133154236e-08
1.132342863e-08
1.131346957e-08
1.130171923e-08
1.128823178e-08
1.127309615e-08
1.125641176e-08
1.123826556e-08
1.121872575e-08
1.119784035e-08
1.117563274e-08
1.115209466e-08
1.112717892e-08
1.110079265e-08
1.107279047e-08
1.104296705e-08
1.101104923e-08
1.097668741e-08
1.093944628e-08
1.089879474e-08
1.085409494e-08
1.080459025e-08
1.074939233e-08
1.06874674e-08
1.061762159e-08
1.053848616e-08
1.044850265e-08
1.034590901e-08
1.022872767e-08
1.009475693e-08
9.941567695e-09
9.766507874e-09
9.566717485e-09
9.339158144e-09
9.080661076e-09
8.787998178e-09
8.457980731e-09
8.087589802e-09
7.674140866e-09
7.215482424e-09
6.710223985e-09
6.157982482e-09
5.559628006e-09
4.917500416e-09
4.235558749e-09
3.519417759e-09
2.77622397e-09
1.13960113e-08
1.139495631e-08
1.139233574e-08
1.138814403e-08
1.138258481e-08
1.13757878e-08
1.136780709e-08
1.135869851e-08
1.134854306e-08
1.133742938e-08
1.132543679e-08
1.131262971e-08
1.12990553e-08
1.128473885e-08
1.126967725e-08
1.125383199e-08
1.123712235e-08
1.121941813e-08
1.120053177e-08
1.118020961e-08
1.11581223e-08
1.113385416e-08
1.110689131e-08
1.107660848e-08
1.104225432e-08
1.100293512e-08
1.095759687e-08
1.090500583e-08
1.084372771e-08
1.077210592e-08
1.068823954e-08
1.058996202e-08
1.047482214e-08
1.034006937e-08
1.018264647e-08
9.999193025e-09
9.786064933e-09
9.539375513e-09
9.255065387e-09
8.92900872e-09
8.557163761e-09
8.135774697e-09
7.661629102e-09
7.132369928e-09
6.546852099e-09
5.905520673e-09
5.210771143e-09
4.467234358e-09
3.681913658e-09
2.864092125e-09
1.145125888e-08
1.145066175e-08
1.144917838e-08
1.144681494e-08
1.144370543e-08
1.143994784e-08
1.143560095e-08
1.143072747e-08
1.142540677e-08
1.141972367e-08
1.141375725e-08
1.140757581e-08
1.140123366e-08
1.139476641e-08
1.138818489e-08
1.138146859e-08
1.137455881e-08
1.136735121e-08
1.135968756e-08
1.135134642e-08
1.134203269e-08
1.133136579e-08
1.131886627e-08
1.130394048e-08
1.128586328e-08
1.126375831e-08
1.123657584e-08
1.120306796e-08
1.116176115e-08
1.111092643e-08
1.104854745e-08
1.09722875e-08
1.087945668e-08
1.076698149e-08
1.063137992e-08
1.046874645e-08
1.027475287e-08
1.004467288e-08
9.773440269e-09
9.455752788e-09
9.086235097e-09
8.659675161e-09
8.171346848e-09
7.617426767e-09
6.995503005e-09
6.305154663e-09
5.548551789e-09
4.730985124e-09
3.861197907e-09
2.951366944e-09
1.150776612e-08
1.150760751e-08
1.150721332e-08
1.150660232e-08
1.150584438e-08
1.150501052e-08
1.150416807e-08
1.150339099e-08
1.150276237e-08
1.150236933e-08
1.150229719e-08
1.150262505e-08
1.150342174e-08
1.150474104e-08
1.150661623e-08
1.150905395e-08
1.151202753e-08
1.151546954e-08
1.151926331e-08
1.152323339e-08
1.152713444e-08
1.153063858e-08
1.153332069e-08
1.153464134e-08
1.153392704e-08
1.153034738e-08
1.152288861e-08
1.15103234e-08
1.149117632e-08
1.146368501e-08
1.142575698e-08
1.137492252e-08
1.130828466e-08
1.122246805e-08
1.111356966e-08
1.097711608e-08
1.080803412e-08
1.060064449e-08
1.034869154e-08
1.004542643e-08
9.683765035e-09
9.256545465e-09
8.756911382e-09
8.178845426e-09
7.517868206e-09
6.771900245e-09
5.942246864e-09
5.034598498e-09
4.059832099e-09
3.034257084e-09
1.15646104e-08
1.156487134e-08
1.156551927e-08
1.156658609e-08
1.156808254e-08
1.157005679e-08
1.157258788e-08
1.157576465e-08
1.157967842e-08
1.158442387e-08
1.159009825e-08
1.159679759e-08
1.160461187e-08
1.161362034e-08
1.162388667e-08
1.163545349e-08
1.164833599e-08
1.166251466e-08
1.167792702e-08
1.169445792e-08
1.171192837e-08
1.173008233e-08
1.174857117e-08
1.176693535e-08
1.178458273e-08
1.180076298e-08
1.181453739e-08
1.18247434e-08
1.182995312e-08
1.182842513e-08
1.181804904e-08
1.179628249e-08
1.176008071e-08
1.170581967e-08
1.162921495e-08
1.152524052e-08
1.138805411e-08
1.121094005e-08
1.098628536e-08
1.070561197e-08
1.03596962e-08
9.938816182e-09
9.433175114e-09
8.833551606e-09
8.132220473e-09
7.324168802e-09
6.408593245e-09
5.390619556e-09
4.283053887e-09
3.107661708e-09
1.162090916e-08
1.162157015e-08
1.162321181e-08
1.162587945e-08
1.162952935e-08
1.163419046e-08
1.1639956e-08
1.164693255e-08
1.165522351e-08
1.166493549e-08
1.167618257e-08
1.168908297e-08
1.170375368e-08
1.172030591e-08
1.1738841e-08
1.175944572e-08
1.178218639e-08
1.180710214e-08
1.183419696e-08
1.186343049e-08
1.1894707e-08
1.192786224e-08
1.196264773e-08
1.199871172e-08
1.203557647e-08
1.207261071e-08
1.210899649e-08
1.214368945e-08
1.217537101e-08
1.220239137e-08
1.222270184e-08
1.223377509e-08
1.223251227e-08
1.22151363e-08
1.217707183e-08
1.211281413e-08
1.201579193e-08
1.187823418e-08
1.16910571e-08
1.144379859e-08
1.112463961e-08
1.072057296e-08
1.021780144e-08
9.602474045e-09
8.861871438e-09
7.986140087e-09
6.970553865e-09
5.818200941e-09
4.542852775e-09
3.171799731e-09
1.167582096e-08
1.167686125e-08
1.167944506e-08
1.168363126e-08
1.168932608e-08
1.169654241e-08
1.170538954e-08
1.171599399e-08
1.17284742e-08
1.17429524e-08
1.175956342e-08
1.177845209e-08
1.17997673e-08
1.182365774e-08
1.185026873e-08
1.187973837e-08
1.191219249e-08
1.194773858e-08
1.198645869e-08
1.202840096e-08
1.207356938e-08
1.212191134e-08
1.217330239e-08
1.222752754e-08
1.228425843e-08
1.234302507e-08
1.240318127e-08
1.246386195e-08
1.252393086e-08
1.258191631e-08
1.263593282e-08
1.268358555e-08
1.272185499e-08
1.27469585e-08
1.275418655e-08
1.273771193e-08
1.269037321e-08
1.26034377e-08
1.246635704e-08
1.226654008e-08
1.198918658e-08
1.161725168e-08
1.113165046e-08
1.051188809e-08
9.73735308e-09
8.78970927e-09
7.656530619e-09
6.336525395e-09
4.844781501e-09
3.217089453e-09
1.172854814e-08
1.172994512e-08
1.173341494e-08
1.173902986e-08
1.174665041e-08
1.175627621e-08
1.176803388e-08
1.178207132e-08
1.179852433e-08
1.181753347e-08
1.183925739e-08
1.186387091e-08
1.189155859e-08
1.1922511e-08
1.195692248e-08
1.199498836e-08
1.203690091e-08
1.208284431e-08
1.213298869e-08
1.218748291e-08
1.224644567e-08
1.23099544e-08
1.237803146e-08
1.245062678e-08
1.252759625e-08
1.260867442e-08
1.269344021e-08
1.278127385e-08
1.287130251e-08
1.296233205e-08
1.30527612e-08
1.314047381e-08
1.322270418e-08
1.329586915e-08
1.335536031e-08
1.339528906e-08
1.34081782e-08
1.338459633e-08
1.331273808e-08
1.317796493e-08
1.296234368e-08
1.264425059e-08
1.21981553e-08
1.159477361e-08
1.080183874e-08
9.786346437e-09
8.518506514e-09
6.981969781e-09
5.18513215e-09
3.183419552e-09
1.17783407e-08
1.17800695e-08
1.178436351e-08
1.179130802e-08
1.180072216e-08
1.181259475e-08
1.182707037e-08
1.184431904e-08
1.186449537e-08
1.188776017e-08
1.191429798e-08
1.194431578e-08
1.197803645e-08
1.201569539e-08
1.205753948e-08
1.210382549e-08
1.215481723e-08
1.221078185e-08
1.227198534e-08
1.233868706e-08
1.241113272e-08
1.24895454e-08
1.25741141e-08
1.266497894e-08
1.276221216e-08
1.286579375e-08
1.297557983e-08
1.309126201e-08
1.321231486e-08
1.333792799e-08
1.346691836e-08
1.359761687e-08
1.372772185e-08
1.385410972e-08
1.397259092e-08
1.40775961e-08
1.416177494e-08
1.421548786e-08
1.422617288e-08
1.417757651e-08
1.404886446e-08
1.38136633e-08
1.343919956e-08
1.288570837e-08
1.21065304e-08
1.104916537e-08
9.656675035e-09
7.87838505e-09
5.67212532e-09
3.094252177e-09
1.182450104e-08
1.182653421e-08
1.183158422e-08
1.183974875e-08
1.185080989e-08
1.186474776e-08
1.188172495e-08
1.190193362e-08
1.192554783e-08
1.195274963e-08
1.198375044e-08
1.201879046e-08
1.205813201e-08
1.210205678e-08
1.215086594e-08
1.22048799e-08
1.226443681e-08
1.232989042e-08
1.240160741e-08
1.2479964e-08
1.256534139e-08
1.26581196e-08
1.275866921e-08
1.286734035e-08
1.298444792e-08
1.311025196e-08
1.324493147e-08
1.338854953e-08
1.354100695e-08
1.370198049e-08
1.38708407e-08
1.404654233e-08
1.422747818e-08
1.441128357e-08
1.459457451e-08
1.477259629e-08
1.493875112e-08
1.508396275e-08
1.519582425e-08
1.52574605e-08
1.524604388e-08
1.513089673e-08
1.487135341e-08
1.441441575e-08
1.369418571e-08
1.263137891e-08
1.114099716e-08
9.135916738e-09
6.506139633e-09
3.246950707e-09
1.186638935e-08
1.186869673e-08
1.187442781e-08
1.188369176e-08
1.189623804e-08
1.191203993e-08
1.193127742e-08
1.195416408e-08
1.198089331e-08
1.201166844e-08
1.204672763e-08
1.208634407e-08
1.213081924e-08
1.21804808e-08
1.2235684e-08
1.229681276e-08
1.236427971e-08
1.243852575e-08
1.252001941e-08
1.26092559e-08
1.27067554e-08
1.281306032e-08
1.2928731e-08
1.305433948e-08
1.319046038e-08
1.33376579e-08
1.349646753e-08
1.366737036e-08
1.385075749e-08
1.404688062e-08
1.42557838e-08
1.447720925e-08
1.471046712e-08
1.495425534e-08
1.520640932e-08
1.546355287e-08
1.572060836e-08
1.597010392e-08
1.620118535e-08
1.639818935e-08
1.653857479e-08
1.658985145e-08
1.650524708e-08
1.62169928e-08
1.562991631e-08
1.460828306e-08
1.2996611e-08
1.05913181e-08
7.293835047e-09
3.072251726e-09
1.190342932e-08
1.190597801e-08
1.191230841e-08
1.192254009e-08
1.193639434e-08
1.195383917e-08
1.197507079e-08
1.200032275e-08
1.202980685e-08
1.206374678e-08
1.210240629e-08
1.214608996e-08
1.219513657e-08
1.224991772e-08
1.231084035e-08
1.237834931e-08
1.245292892e-08
1.253510427e-08
1.262544279e-08
1.272455584e-08
1.283310022e-08
1.295177906e-08
1.308134217e-08
1.322258522e-08
1.337634736e-08
1.354350631e-08
1.372496994e-08
1.392166272e-08
1.413450479e-08
1.436438054e-08
1.461209226e-08
1.487829249e-08
1.516338594e-08
1.546738787e-08
1.57897194e-08
1.612891136e-08
1.648217327e-08
1.684476087e-08
1.720903679e-08
1.756304884e-08
1.788833732e-08
1.815639885e-08
1.832296651e-08
1.831745107e-08
1.802675244e-08
1.725377107e-08
1.569546002e-08
1.272747899e-08
7.880152502e-09
2.082797796e-11
1.193511382e-08
1.19378683e-08
1.194470976e-08
1.195576684e-08
1.197073723e-08
1.198958496e-08
1.201252075e-08
1.203979599e-08
1.207163917e-08
1.21082926e-08
1.215004331e-08
1.219722441e-08
1.225020864e-08
1.230940763e-08
1.237527557e-08
1.244831309e-08
1.252907031e-08
1.261814993e-08
1.271621087e-08
1.282397254e-08
1.294221941e-08
1.307180585e-08
1.321366113e-08
1.336879444e-08
1.353829965e-08
1.372335929e-08
1.392524722e-08
1.414532884e-08
1.438505744e-08
1.46459646e-08
1.492964128e-08
1.5237705e-08
1.557174618e-08
1.593324324e-08
1.632343135e-08
1.674310156e-08
1.719229576e-08
1.766984334e-08
1.817265496e-08
1.869463482e-08
1.922498186e-08
1.974544485e-08
2.022579416e-08
2.061545265e-08
2.082862291e-08
2.070493087e-08
1.994884146e-08
1.778078309e-08
1.297702499e-08
-9.860124896e-10
1.196101042e-08
1.196393277e-08
1.197119109e-08
1.198292156e-08
1.199880288e-08
1.201879621e-08
1.204312452e-08
1.207205431e-08
1.210582837e-08
1.214470504e-08
1.218899131e-08
1.22390448e-08
1.229526741e-08
1.235810521e-08
1.24280531e-08
1.250565988e-08
1.259153265e-08
1.268634147e-08
1.2790825e-08
1.290579714e-08
1.303215456e-08
1.317088517e-08
1.332307761e-08
1.348993185e-08
1.367277093e-08
1.387305368e-08
1.409238844e-08
1.433254725e-08
1.459548006e-08
1.488332784e-08
1.519843298e-08
1.554334442e-08
1.592081314e-08
1.633377174e-08