/*--------------------------------*- C++ -*----------------------------------*\
| =========                 |                                                 |
| \\      /  F ield         | foam-extend: Open Source CFD                    |
|  \\    /   O peration     | Version:     4.1                                |
|   \\  /    A nd           | Web:         http://www.foam-extend.org         |
|    \\/     M anipulation  |                                                 |
\*---------------------------------------------------------------------------*/
FoamFile
{
    version     2.0;
    format      ascii;
    class       surfaceScalarField;
    location    "40000";
    object      phi;
}
// * * * * * * * * * * * * * * * * * * * * * * * * * * * * * * * * * * * * * //

dimensions      [0 3 -1 0 0 0 0];

internalField   nonuniform List<scalar> 
31542
(
1.062573528e-07
3.07264724e-09
1.006329123e-07
5.624440467e-09
9.414110562e-08
6.491806672e-09
8.737353425e-08
6.767571368e-09
8.061070018e-08
6.762834076e-09
7.411104259e-08
6.499657582e-09
6.804761229e-08
6.063430301e-09
6.251481501e-08
5.53279728e-09
5.755740413e-08
4.957410882e-09
5.318522957e-08
4.37217456e-09
4.938359202e-08
3.801637548e-09
4.61196911e-08
3.263900921e-09
4.334887737e-08
2.770813729e-09
4.102044927e-08
2.328428095e-09
3.9081959e-08
1.938490277e-09
3.748211855e-08
1.599840444e-09
3.61727008e-08
1.309417748e-09
3.5109693e-08
1.063007802e-09
3.425387212e-08
8.558208743e-10
3.357096163e-08
6.829104837e-10
3.303150794e-08
5.394536893e-10
3.261057742e-08
4.209305257e-10
3.228734367e-08
3.23233752e-10
3.204460977e-08
2.427339008e-10
3.186826697e-08
1.763427975e-10
3.174674753e-08
1.215194388e-10
3.167126475e-08
7.548277414e-11
3.163513002e-08
3.613472563e-11
3.163500148e-08
1.285448174e-13
3.166213044e-08
-2.712896204e-11
3.171475835e-08
-5.262791603e-11
3.178985615e-08
-7.509780062e-11
3.188487882e-08
-9.502267051e-11
3.199782362e-08
-1.129448005e-10
3.212704915e-08
-1.292255322e-10
3.227098658e-08
-1.439374291e-10
3.242850424e-08
-1.575176585e-10
3.259853063e-08
-1.700263978e-10
3.277983742e-08
-1.813067815e-10
3.297112446e-08
-1.912870436e-10
3.31710986e-08
-1.999741371e-10
3.337844564e-08
-2.073470369e-10
3.359180294e-08
-2.133572981e-10
3.380975997e-08
-2.179570211e-10
3.403086504e-08
-2.21105067e-10
3.425362951e-08
-2.227644675e-10
3.447653256e-08
-2.229030471e-10
3.469802852e-08
-2.21495961e-10
3.49165556e-08
-2.185270664e-10
-2.139891952e-10
3.51305448e-08
1.113824853e-07
1.02016195e-09
1.139961879e-07
3.010737816e-09
1.160908209e-07
4.397173744e-09
1.174774815e-07
5.380910725e-09
1.181158834e-07
6.124432239e-09
1.180017388e-07
6.613802121e-09
1.172285512e-07
6.8366179e-09
1.159245885e-07
6.836760053e-09
1.142163188e-07
6.665680556e-09
1.122217569e-07
6.366736437e-09
1.100458717e-07
5.977522806e-09
1.077772399e-07
5.532532704e-09
1.054874168e-07
5.060636778e-09
1.032319781e-07
4.583866814e-09
1.010521516e-07
4.118316834e-09
9.897692451e-08
3.675067516e-09
9.702521388e-08
3.261128388e-09
9.520795118e-08
2.880270507e-09
9.352998062e-08
2.533791446e-09
9.199168371e-08
2.221207401e-09
9.059030124e-08
1.940836161e-09
8.932097202e-08
1.690259763e-09
8.817752687e-08
1.466678903e-09
8.7153086e-08
1.267174786e-09
8.62405617e-08
1.088867095e-09
8.543310635e-08
9.289747917e-10
8.472366843e-08
7.849206965e-10
8.41053155e-08
6.544876517e-10
8.356945493e-08
5.35989115e-10
8.311373555e-08
4.285904152e-10
8.273111047e-08
3.299971683e-10
8.24168123e-08
2.392003617e-10
8.216631993e-08
1.554696987e-10
8.19753149e-08
7.806022376e-11
8.184018169e-08
5.907675194e-12
8.175636626e-08
-6.012201033e-11
8.172110614e-08
-1.22257541e-10
8.173089139e-08
-1.798116504e-10
8.17820072e-08
-2.324225981e-10
8.187109979e-08
-2.803796402e-10
8.199498217e-08
-3.238565317e-10
8.215054345e-08
-3.629083206e-10
8.233474208e-08
-3.975559412e-10
8.254459709e-08
-4.278120432e-10
8.277717406e-08
-4.53682044e-10
8.302957651e-08
-4.751669241e-10
8.329894183e-08
-4.922683711e-10
8.358243891e-08
-5.049930542e-10
8.387726631e-08
-5.133544698e-10
-5.173748669e-10
8.418065197e-08
1.09650189e-07
6.999729676e-10
1.107430857e-07
1.917841136e-09
1.122131604e-07
2.927099045e-09
1.138802954e-07
3.713775647e-09
1.156550215e-07
4.349706128e-09
1.174097563e-07
4.859067394e-09
1.190197411e-07
5.226633031e-09
1.204047662e-07
5.451734942e-09
1.215208065e-07
5.549640304e-09
1.223500677e-07
5.537475195e-09
1.228958578e-07
5.431732789e-09
1.231782019e-07
5.250188516e-09
1.232275812e-07
5.011257521e-09
1.230792419e-07
4.732206064e-09
1.227694484e-07
4.428110406e-09
1.223330033e-07
4.111512583e-09
1.218017754e-07
3.792356303e-09
1.212039085e-07
3.478137387e-09
1.205635485e-07
3.174151467e-09
1.19900919e-07
2.883836924e-09
1.192326061e-07
2.609148977e-09
1.185719525e-07
2.350913372e-09
1.179294952e-07
2.109136223e-09
1.173134078e-07
1.883262172e-09
1.167298954e-07
1.672379557e-09
1.161834864e-07
1.475383754e-09
1.156773019e-07
1.291105235e-09
1.152133802e-07
1.118409356e-09
1.147931102e-07
9.562590479e-10
1.144178634e-07
8.038372658e-10
1.140875551e-07
6.603054162e-10
1.138019104e-07
5.248451239e-10
1.13560504e-07
3.968760363e-10
1.133626093e-07
2.759549531e-10
1.132066873e-07
1.618296343e-10
1.130915799e-07
5.498541363e-11
1.130157466e-07
-4.642423859e-11
1.12978171e-07
-1.42236039e-10
1.129768822e-07
-2.311337581e-10
1.130105108e-07
-3.1400828e-10
1.130774964e-07
-3.908421031e-10
1.131761671e-07
-4.615789956e-10
1.133047831e-07
-5.261719561e-10
1.134615255e-07
-5.845544862e-10
1.136444893e-07
-6.366458592e-10
1.138516886e-07
-6.823661873e-10
1.140810654e-07
-7.216452007e-10
1.143305008e-07
-7.544283895e-10
1.145978222e-07
-7.806758991e-10
-8.003648678e-10
1.148808122e-07
1.095680994e-07
4.618736001e-10
1.101010407e-07
1.384899786e-09
1.108305447e-07
2.197595088e-09
1.116833851e-07
2.860935219e-09
1.126464429e-07
3.386648347e-09
1.137094323e-07
3.796078007e-09
1.148395793e-07
4.096485977e-09
1.159977358e-07
4.293578489e-09
1.171480005e-07
4.399375574e-09
1.182579805e-07
4.427495203e-09
1.192999234e-07
4.389789931e-09
1.202530616e-07
4.29705022e-09
1.211044537e-07
4.159865472e-09
1.218482871e-07
3.988372652e-09
1.224846997e-07
3.791697827e-09
1.230184525e-07
3.577759752e-09
1.234575635e-07
3.353245357e-09
1.238120696e-07
3.123631292e-09
1.24092991e-07
2.893230005e-09
1.243115428e-07
2.665285125e-09
1.244785823e-07
2.442109507e-09
1.246042546e-07
2.225241131e-09
1.246977926e-07
2.015598164e-09
1.24767431e-07
1.813623833e-09
1.248203947e-07
1.619415859e-09
1.248629417e-07
1.432836762e-09
1.249004433e-07
1.253603548e-09
1.249374858e-07
1.081366901e-09
1.249779665e-07
9.157783596e-10
1.250252465e-07
7.565572163e-10
1.250821104e-07
6.034415275e-10
1.251508231e-07
4.561324917e-10
1.252332798e-07
3.14419321e-10
1.253309866e-07
1.782480864e-10
1.254448758e-07
4.794050121e-11
1.255764419e-07
-7.658071904e-11
1.257257158e-07
-1.956981499e-10
1.25892851e-07
-3.093712052e-10
1.260788295e-07
-4.171122737e-10
1.262836916e-07
-5.188704537e-10
1.265073891e-07
-6.145395971e-10
1.267497315e-07
-7.039213955e-10
1.270103526e-07
-7.867930579e-10
1.272887298e-07
-8.62931699e-10
1.275842034e-07
-9.321193795e-10
1.27895986e-07
-9.941488429e-10
1.282231706e-07
-1.048829846e-09
1.285647363e-07
-1.095994088e-09
1.289195583e-07
-1.1354979e-09
-1.167224817e-09
1.292864183e-07
1.094430007e-07
3.488729341e-10
1.097739605e-07
1.053939973e-09
1.102730947e-07
1.698460885e-09
1.108869763e-07
2.247053587e-09
1.115782717e-07
2.695352936e-09
1.123235347e-07
3.050815046e-09
1.131015121e-07
3.318508514e-09
1.138931664e-07
3.501924188e-09
1.146845644e-07
3.607977588e-09
1.154655189e-07
3.646540739e-09
1.162275155e-07
3.627793309e-09
1.169633089e-07
3.561256779e-09
1.176672543e-07
3.455920108e-09
1.183354609e-07
3.320166046e-09
1.189656891e-07
3.161469598e-09
1.195572064e-07
2.986242529e-09
1.201106038e-07
2.799847898e-09
1.20627565e-07
2.606670148e-09
1.211106022e-07
2.410192742e-09
1.215627983e-07
2.21308908e-09
1.219875764e-07
2.017331372e-09
1.223885099e-07
1.824307632e-09
1.227691724e-07
1.634935641e-09
1.231330283e-07
1.449767979e-09
1.234833585e-07
1.269085633e-09
1.23823216e-07
1.092979291e-09
1.241554008e-07
9.214187021e-10
1.244824549e-07
7.543128686e-10
1.248066775e-07
5.915557185e-10
1.251301756e-07
4.330591673e-10
1.254548212e-07
2.787958451e-10
1.257822298e-07
1.287239043e-10
1.261136073e-07
-1.695818953e-11
1.264503016e-07
-1.584462195e-10
1.267938111e-07
-2.955689446e-10
1.271456367e-07
-4.284063078e-10
1.275066033e-07
-5.566647982e-10
1.278772798e-07
-6.800477182e-10
1.282583749e-07
-7.982073145e-10
1.286503011e-07
-9.107966471e-10
1.290532731e-07
-1.017511658e-09
1.294673781e-07
-1.118026403e-09
1.298925799e-07
-1.211994807e-09
1.303287215e-07
-1.299073353e-09
1.307755332e-07
-1.378931039e-09
1.312326373e-07
-1.451252954e-09
1.316995523e-07
-1.515744862e-09
1.321756969e-07
-1.572138687e-09
1.326603961e-07
-1.620197089e-09
-1.65971672e-09
1.33152888e-07
1.094078035e-07
2.710694214e-10
1.096460794e-07
8.156641193e-10
1.100196524e-07
1.32488782e-09
1.104929734e-07
1.773732567e-09
1.110361532e-07
2.152173132e-09
1.116271605e-07
2.459807735e-09
1.12247486e-07
2.698183078e-09
1.128804151e-07
2.868995075e-09
1.135124744e-07
2.975918239e-09
1.141339967e-07
3.02501847e-09
1.147383397e-07
3.0234503e-09
1.153211587e-07
2.978437761e-09
1.158800585e-07
2.897020299e-09
1.164142717e-07
2.785952864e-09
1.169242526e-07
2.651488693e-09
1.174113131e-07
2.499182075e-09
1.178773514e-07
2.333809536e-09
1.183246475e-07
2.159374076e-09
1.187556963e-07
1.979144009e-09
1.191730739e-07
1.795711408e-09
1.195793362e-07
1.611069081e-09
1.199769448e-07
1.426699067e-09
1.203682168e-07
1.243663674e-09
1.207552941e-07
1.062690619e-09
1.211401286e-07
8.842511099e-10
1.215244767e-07
7.086312136e-10
1.219099044e-07
5.359910187e-10
1.222977972e-07
3.664200419e-10
1.226893832e-07
1.99969755e-10
1.230858559e-07
3.658649574e-11
1.234881047e-07
-1.234529966e-10
1.238970975e-07
-2.802688873e-10
1.243138932e-07
-4.337538854e-10
1.247392261e-07
-5.837791082e-10
1.251737102e-07
-7.300531077e-10
1.256176493e-07
-8.723453424e-10
1.260713737e-07
-1.010389247e-09
1.265351802e-07
-1.143854216e-09
1.27009301e-07
-1.272328103e-09
1.274938671e-07
-1.395362715e-09
1.279888872e-07
-1.512531809e-09
1.284942747e-07
-1.623413902e-09
1.290098578e-07
-1.727577903e-09
1.295353767e-07
-1.824592213e-09
1.300704823e-07
-1.91403664e-09
1.306147387e-07
-1.995509431e-09
1.311676267e-07
-2.068632803e-09
1.317285468e-07
-2.133058838e-09
1.322968247e-07
-2.188474916e-09
-2.234607937e-09
1.328717159e-07
1.09388814e-07
2.122554355e-10
1.095654517e-07
6.39026399e-10
1.09847017e-07
1.043322488e-09
1.102132339e-07
1.407515709e-09
1.1064415e-07
1.721256978e-09
1.11122968e-07
1.980989734e-09
1.116349335e-07
2.186217589e-09
1.12166349e-07
2.337579535e-09
1.127051996e-07
2.437067698e-09
1.132419079e-07
2.48831014e-09
1.13769325e-07
2.4960332e-09
1.142823887e-07
2.465374057e-09
1.147778694e-07
2.401539651e-09
1.152541584e-07
2.309663801e-09
1.157109958e-07
2.194651318e-09
1.161491639e-07
2.061014018e-09
1.165702063e-07
1.912767068e-09
1.169761884e-07
1.753391959e-09
1.173694944e-07
1.585838095e-09
1.177526603e-07
1.41254549e-09
1.181282444e-07
1.235484996e-09
1.184987331e-07
1.056210377e-09
1.188664739e-07
8.759228254e-10
1.192336349e-07
6.955295738e-10
1.196021875e-07
5.156985465e-10
1.199738981e-07
3.369206133e-10
1.203503383e-07
1.595508343e-10
1.207329271e-07
-1.616875716e-11
1.211228646e-07
-1.899677413e-10
1.2152114e-07
-3.616888939e-10
1.219287659e-07
-5.310788768e-10
1.223464701e-07
-6.979731641e-10
1.227748641e-07
-8.621478838e-10
1.232144254e-07
-1.023340377e-09
1.236656143e-07
-1.18124196e-09
1.24128772e-07
-1.335503139e-09
1.246041231e-07
-1.485740275e-09
1.250917819e-07
-1.631512995e-09
1.25591784e-07
-1.7723302e-09
1.261040981e-07
-1.907676842e-09
1.266286028e-07
-2.037036551e-09
1.271650806e-07
-2.159891705e-09
1.277132221e-07
-2.275719395e-09
1.282726278e-07
-2.383997888e-09
1.28842809e-07
-2.4842178e-09
1.294231907e-07
-2.575891197e-09
1.300131166e-07
-2.65855866e-09
1.306118536e-07
-2.731795902e-09
1.312185987e-07
-2.795219958e-09
-2.848494357e-09
1.318324851e-07
1.093749354e-07
1.673200406e-10
1.095102176e-07
5.037442053e-10
1.097288824e-07
8.24657713e-10
1.100189955e-07
1.117402539e-09
1.103669109e-07
1.373341626e-09
1.107597052e-07
1.588195411e-09
1.111856144e-07
1.760308392e-09
1.116338386e-07
1.889355273e-09
1.120947539e-07
1.976152468e-09
1.125603177e-07
2.022746271e-09
1.130241857e-07
2.03216523e-09
1.13481574e-07
2.007985715e-09
1.139290999e-07
1.954013807e-09
1.143646518e-07
1.874111915e-09
1.147872373e-07
1.772065809e-09
1.151967947e-07
1.651456566e-09
1.155939982e-07
1.515563585e-09
1.159800778e-07
1.367312338e-09
1.163566597e-07
1.209256187e-09
1.167256273e-07
1.043577938e-09
1.170890021e-07
8.721101748e-10
1.174488529e-07
6.963596131e-10
1.178072206e-07
5.175551447e-10
1.181660724e-07
3.366777287e-10
1.185272491e-07
1.545218846e-10
1.188924836e-07
-2.831393014e-11
1.192633455e-07
-2.113110614e-10
1.196412113e-07
-3.94034559e-10
1.200273492e-07
-5.761056816e-10
1.204228606e-07
-7.572002018e-10
1.208287651e-07
-9.369834613e-10
1.212459088e-07
-1.115116867e-09
1.216750113e-07
-1.291250296e-09
1.221166742e-07
-1.46500337e-09
1.225713867e-07
-1.635954402e-09
1.230395192e-07
-1.803635699e-09
1.235213208e-07
-1.967541808e-09
1.240169362e-07
-2.127128466e-09
1.245264215e-07
-2.281815411e-09
1.250497404e-07
-2.430995757e-09
1.255867512e-07
-2.57404733e-09
1.261372001e-07
-2.710340657e-09
1.26700725e-07
-2.839244242e-09
1.272768592e-07
-2.960132086e-09
1.278650351e-07
-3.072393705e-09
1.284645879e-07
-3.175444036e-09
1.290747614e-07
-3.268732194e-09
1.29694715e-07
-3.351749477e-09
1.303235317e-07
-3.424036687e-09
-3.485190332e-09
1.309602277e-07
1.093655595e-07
1.317605468e-10
1.094727405e-07
3.965632057e-10
1.09647268e-07
6.501302296e-10
1.098814873e-07
8.831831963e-10
1.10165977e-07
1.088851925e-09
1.104911635e-07
1.263008944e-09
1.108480148e-07
1.403457082e-09
1.112281461e-07
1.509223904e-09
1.116239441e-07
1.580354471e-09
1.120288067e-07
1.617883735e-09
1.124372969e-07
1.623674942e-09
1.128451398e-07
1.60014289e-09
1.132491454e-07
1.550008134e-09
1.136471242e-07
1.476133193e-09
1.140377866e-07
1.381403351e-09
1.144206212e-07
1.26862197e-09
1.147957594e-07
1.140425387e-09
1.151638454e-07
9.992263647e-10
1.155259149e-07
8.471866351e-10
1.158832893e-07
6.862035691e-10
1.162374848e-07
5.179147136e-10
1.165901362e-07
3.437081962e-10
1.169428442e-07
1.648470875e-10
1.172973618e-07
-1.78398419e-11
1.176552297e-07
-2.033460011e-10
1.18018027e-07
-3.911112643e-10
1.183871913e-07
-5.804753051e-10
1.18764077e-07
-7.709202536e-10
1.191499393e-07
-9.619679718e-10
1.195459049e-07
-1.153165881e-09
1.199529911e-07
-1.344069676e-09
1.203721009e-07
-1.534226619e-09
1.208040188e-07
-1.72316815e-09
1.212494111e-07
-1.910395735e-09
1.217088283e-07
-2.095371605e-09
1.221827088e-07
-2.277516207e-09
1.226713776e-07
-2.456210528e-09
1.231750466e-07
-2.630797478e-09
1.23693815e-07
-2.800583867e-09
1.242276659e-07
-2.964846603e-09
1.247764611e-07
-3.122842526e-09
1.25339939e-07
-3.273818563e-09
1.259177153e-07
-3.417020586e-09
1.265092858e-07
-3.551702607e-09
1.271140296e-07
-3.677137433e-09
1.277312135e-07
-3.792627936e-09
1.283599992e-07
-3.897517879e-09
1.289994516e-07
-3.991201891e-09
1.296485493e-07
-4.073134434e-09
-4.142837397e-09
1.303061964e-07
1.093588328e-07
1.029277187e-10
1.09445655e-07
3.097410299e-10
1.095876433e-07
5.081419654e-10
1.097796928e-07
6.911335983e-10
1.100152895e-07
8.532552389e-10
1.102874644e-07
9.908340673e-10
1.10589352e-07
1.101569461e-09
1.109144109e-07
1.184164998e-09
1.112565772e-07
1.23818815e-09
1.116104512e-07
1.26400975e-09
1.119714438e-07
1.262682316e-09
1.123358267e-07
1.235760073e-09
1.127007111e-07
1.185123694e-09
1.130639997e-07
1.112844589e-09
1.134243223e-07
1.021080743e-09
1.137809558e-07
9.119885054e-10
1.141337303e-07
7.876508957e-10
1.144829346e-07
6.500220464e-10
1.148292243e-07
5.008968729e-10
1.151735335e-07
3.418944086e-10
1.155169671e-07
1.744811571e-10
1.158610457e-07
-3.704677634e-13
1.162068037e-07
-1.809109184e-10
1.16555792e-07
-3.668280949e-10
1.169094617e-07
-5.57015749e-10
1.172691548e-07
-7.508043063e-10
1.176362259e-07
-9.475464168e-10
1.180119528e-07
-1.146647192e-09
1.183975368e-07
-1.347551977e-09
1.187940961e-07
-1.549725148e-09
1.192026592e-07
-1.752632738e-09
1.196241595e-07
-1.955726983e-09
1.200594271e-07
-2.158435731e-09
1.205091844e-07
-2.360153007e-09
1.209740446e-07
-2.560231872e-09
1.214545093e-07
-2.757980838e-09
1.219509622e-07
-2.952663449e-09
1.224636647e-07
-3.143499937e-09
1.229927516e-07
-3.329670772e-09
1.235382281e-07
-3.510323148e-09
1.240999658e-07
-3.684580178e-09
1.246776986e-07
-3.851551417e-09
1.252710218e-07
-4.010343808e-09
1.258793926e-07
-4.160073398e-09
1.265021334e-07
-4.299878201e-09
1.271384372e-07
-4.428931717e-09
1.277873756e-07
-4.546456253e-09
1.284479091e-07
-4.651735415e-09
1.291189e-07
-4.744125321e-09
-4.823064095e-09
1.297991267e-07
1.093537798e-07
7.914796018e-11
1.094253527e-07
2.3816803e-10
1.095427866e-07
3.907080816e-10
1.097025698e-07
5.313503975e-10
1.09900104e-07
6.557210404e-10
1.101302774e-07
7.606606966e-10
1.103878703e-07
8.439765759e-10
1.106677883e-07
9.042469377e-10
1.109652262e-07
9.407502331e-10
1.112758208e-07
9.534151777e-10
1.11595771e-07
9.427321017e-10
1.11921901e-07
9.096300468e-10
1.122516718e-07
8.55352986e-10
1.125831623e-07
7.813540178e-10
1.129150344e-07
6.892086477e-10
1.13246483e-07
5.805399357e-10
1.135771748e-07
4.569591163e-10
1.139071809e-07
3.2001596e-10
1.142368823e-07
1.711953979e-10
1.145670498e-07
1.172695781e-11
1.148984802e-07
-1.569492813e-10
1.152320592e-07
-3.339494936e-10
1.155692633e-07
-5.181150266e-10
1.159111172e-07
-7.086819579e-10
1.162589355e-07
-9.048340204e-10
1.16613974e-07
-1.105842808e-09
1.169774799e-07
-1.311052316e-09
1.173506751e-07
-1.519842385e-09
1.17734736e-07
-1.731612915e-09
1.1813078e-07
-1.945769148e-09
1.185398541e-07
-2.161706793e-09
1.189629257e-07
-2.378798646e-09
1.194008739e-07
-2.596383914e-09
1.198544807e-07
-2.813759778e-09
1.203244237e-07
-3.030174883e-09
1.208112683e-07
-3.244825424e-09
1.213154591e-07
-3.456854237e-09
1.218373118e-07
-3.665352668e-09
1.223770059e-07
-3.869364904e-09
1.229345777e-07
-4.067894877e-09
1.235099133e-07
-4.259915774e-09
1.241027436e-07
-4.44438171e-09
1.247126408e-07
-4.620241036e-09
1.253390184e-07
-4.786451039e-09
1.25981134e-07
-4.941993806e-09
1.266380951e-07
-5.085892824e-09
1.273088684e-07
-5.217229533e-09
1.279922921e-07
-5.335159082e-09
1.286870914e-07
-5.438924594e-09
-5.527869258e-09
1.293918965e-07
1.093498917e-07
5.925627533e-11
1.094097468e-07
1.783129479e-10
1.095081998e-07
2.922550482e-10
1.096427597e-07
3.967904537e-10
1.098101105e-07
4.883702874e-10
1.100064723e-07
5.642988801e-10
1.102278842e-07
6.22564656e-10
1.104703983e-07
6.617328813e-10
1.107302265e-07
6.809220122e-10
1.110038664e-07
6.797753072e-10
1.112882021e-07
6.583963696e-10
1.115805686e-07
6.17263486e-10
1.118787802e-07
5.571414598e-10
1.121811322e-07
4.790019804e-10
1.124863866e-07
3.839542144e-10
1.127937411e-07
2.731855118e-10
1.131027753e-07
1.479248871e-10
1.134135179e-07
9.27330506e-12
1.137261135e-07
-1.414001458e-10
1.140410524e-07
-3.032119709e-10
1.143591355e-07
-4.75032414e-10
1.146811554e-07
-6.559693699e-10
1.150081892e-07
-8.451487871e-10
1.153412835e-07
-1.041776328e-09
1.156815814e-07
-1.245131917e-09
1.160302703e-07
-1.454531702e-09
1.163885472e-07
-1.669329178e-09
1.167576032e-07
-1.888898388e-09
1.171386074e-07
-2.112617101e-09
1.175326913e-07
-2.339853028e-09
1.179409353e-07
-2.569950877e-09
1.183643569e-07
-2.802220196e-09
1.188038978e-07
-3.035924836e-09
1.192604125e-07
-3.270274449e-09
1.197346557e-07
-3.504418108e-09
1.202272707e-07
-3.737440388e-09
1.207387768e-07
-3.968360304e-09
1.212695572e-07
-4.196133156e-09
1.218198476e-07
-4.419655271e-09
1.223897244e-07
-4.637771694e-09
1.229790956e-07
-4.849286914e-09
1.235876923e-07
-5.052978417e-09
1.24215064e-07
-5.247612717e-09
1.248605763e-07
-5.43196342e-09
1.255234135e-07
-5.604830927e-09
1.262025838e-07
-5.76506313e-09
1.268969305e-07
-5.911576311e-09
1.276051467e-07
-6.043375258e-09
1.283257938e-07
-6.159571625e-09
-6.259399579e-09
1.290573241e-07
1.093468266e-07
4.242964682e-11
1.09397451e-07
1.276885372e-10
1.094808845e-07
2.088215983e-10
1.0959532e-07
2.823548783e-10
1.097383279e-07
3.453624705e-10
1.099070907e-07
3.955360859e-10
1.100985967e-07
4.310586537e-10
1.103097882e-07
4.505412907e-10
1.105376841e-07
4.530261167e-10
1.107794835e-07
4.379759104e-10
1.110326524e-07
4.052274693e-10
1.112949838e-07
3.549320977e-10
1.115646315e-07
2.874937838e-10
1.118401221e-07
2.0351134e-10
1.121203551e-07
1.037212209e-10
1.124046308e-07
-1.109013604e-11
1.126924864e-07
-1.399307511e-10
1.129837805e-07
-2.820207711e-10
1.132787792e-07
-4.363989156e-10
1.135778143e-07
-6.022470031e-10
1.138815187e-07
-7.787368409e-10
1.141906405e-07
-9.650912066e-10
1.145060756e-07
-1.160583867e-09
1.14828826e-07
-1.364526688e-09
1.151599683e-07
-1.576274204e-09
1.15500639e-07
-1.79520241e-09
1.158520087e-07
-2.020698885e-09
1.162152628e-07
-2.252152552e-09
1.165915858e-07
-2.488940053e-09
1.169821449e-07
-2.730412153e-09
1.173880751e-07
-2.975881065e-09
1.178104636e-07
-3.224608656e-09
1.182503346e-07
-3.475795865e-09
1.18708634e-07
-3.728573859e-09
1.191862132e-07
-3.981997293e-09
1.196838128e-07
-4.235040019e-09
1.202020462e-07
-4.486593652e-09
1.207413823e-07
-4.735469274e-09
1.213021295e-07
-4.980402514e-09
1.2188442e-07
-5.220062183e-09
1.224881957e-07
-5.453062568e-09
1.231131966e-07
-5.677979336e-09
1.237589527e-07
-5.893368785e-09
1.244247793e-07
-6.097790047e-09
1.25109778e-07
-6.289829647e-09
1.258128425e-07
-6.468127646e-09
1.265326705e-07
-6.631404305e-09
1.272677813e-07
-6.778486039e-09
1.28016539e-07
-6.908329323e-09
-7.020041186e-09
1.287771806e-07
1.093443532e-07
2.807641897e-11
1.093875435e-07
8.449829445e-11
1.094588398e-07
1.375252623e-10
1.09556908e-07
1.842866219e-10
1.096799435e-07
2.223270523e-10
1.098258277e-07
2.496517996e-10
1.099922615e-07
2.646249289e-10
1.101768748e-07
2.659279232e-10
1.103773246e-07
2.525763788e-10
1.10591381e-07
2.239194445e-10
1.108170003e-07
1.796081749e-10
1.110523767e-07
1.195557018e-10
1.112959798e-07
4.389068484e-11
1.115465709e-07
-4.70797188e-11
1.118032064e-07
-1.529143341e-10
1.120652005e-07
-2.730841604e-10
1.123322417e-07
-4.069720286e-10
1.126041855e-07
-5.539645504e-10
1.128811945e-07
-7.134078788e-10
1.131636033e-07
-8.846558096e-10
1.134519472e-07
-1.067080793e-09
1.137469269e-07
-1.260070849e-09
1.140493806e-07
-1.463037582e-09
1.143602648e-07
-1.67541093e-09
1.146806254e-07
-1.896634739e-09
1.1501158e-07
-2.12615709e-09
1.153543009e-07
-2.3634197e-09
1.157099956e-07
-2.607847291e-09
1.160798908e-07
-2.858835212e-09
1.164652148e-07
-3.115736241e-09
1.168671815e-07
-3.377847711e-09
1.172869722e-07
-3.644399324e-09
1.177257182e-07
-3.91454195e-09
1.181844823e-07
-4.187337898e-09
1.186642382e-07
-4.461753178e-09
1.191658504e-07
-4.736652246e-09
1.196900525e-07
-5.01079575e-09
1.20237425e-07
-5.282841771e-09
1.208083735e-07
-5.551350982e-09
1.214031074e-07
-5.8147961e-09
1.220216207e-07
-6.071575877e-09
1.226636751e-07
-6.320033744e-09
1.233287873e-07
-6.558480952e-09
1.240162211e-07
-6.785223865e-09
1.247249861e-07
-6.998594687e-09
1.254538431e-07
-7.196984667e-09
1.262013173e-07
-7.378878409e-09
1.269657189e-07
-7.542887685e-09
1.277451725e-07
-7.687782894e-09
-7.812520277e-09
1.285376516e-07
1.093423085e-07
1.576794729e-11
1.093793846e-07
4.742216789e-11
1.094406726e-07
7.623728113e-11
1.095251719e-07
9.978728612e-11
1.096315259e-07
1.159730779e-10
1.097581271e-07
1.230505521e-10
1.099032163e-07
1.195357775e-10
1.100649624e-07
1.041817731e-10
1.102415186e-07
7.602015835e-11
1.104311165e-07
3.432157883e-11
1.106321208e-07
-2.139616335e-11
1.108430694e-07
-9.139281754e-11
1.110627065e-07
-1.757464159e-10
1.112900072e-07
-2.743804597e-10
1.115241886e-07
-3.870957204e-10
1.117647055e-07
-5.136010627e-10
1.120112679e-07
-6.535344122e-10
1.122637933e-07
-8.064900146e-10
1.12522421e-07
-9.720355859e-10
1.12787488e-07
-1.149722732e-09
1.130595087e-07
-1.339101546e-09
1.133391601e-07
-1.539722209e-09
1.136272594e-07
-1.751136934e-09
1.139247467e-07
-1.972898211e-09
1.142326658e-07
-2.204553832e-09
1.14552148e-07
-2.445639268e-09
1.148843959e-07
-2.695667589e-09
1.152306667e-07
-2.954118176e-09
1.155922558e-07
-3.220424284e-09
1.159704793e-07
-3.49395968e-09
1.163666566e-07
-3.774025022e-09
1.167820917e-07
-4.059834496e-09
1.17218053e-07
-4.350503178e-09
1.176757507e-07
-4.64503564e-09
1.18156314e-07
-4.942316431e-09
1.186607648e-07
-5.241103069e-09
1.191899913e-07
-5.540022259e-09
1.197447195e-07
-5.837570007e-09
1.203254849e-07
-6.132116328e-09
1.209326039e-07
-6.421915149e-09
1.21566148e-07
-6.705119928e-09
1.222259195e-07
-6.979805288e-09
1.229114333e-07
-7.243994721e-09
1.236219035e-07
-7.495694054e-09
1.243562388e-07
-7.732929955e-09
1.251130464e-07
-7.953792264e-09
1.258906464e-07
-8.156478471e-09
1.266870969e-07
-8.33933814e-09
1.275002288e-07
-8.500914788e-09
-8.639982467e-09
1.28327691e-07
1.093405935e-07
5.174417417e-12
1.093725411e-07
1.547456115e-11
1.094254112e-07
2.336719044e-11
1.094984496e-07
2.67488927e-11
1.095906281e-07
2.379457882e-11
1.097007067e-07
1.297190673e-11
1.098273231e-07
-7.080606372e-12
1.099690962e-07
-3.759126899e-11
1.101245528e-07
-7.943645469e-11
1.102923033e-07
-1.334289835e-10
1.104710427e-07
-2.001355251e-10
1.106595981e-07
-2.799481755e-10
1.108569586e-07
-3.731069591e-10
1.110622976e-07
-4.797194975e-10
1.112749853e-07
-5.997834026e-10
1.114945935e-07
-7.332092325e-10
1.117208991e-07
-8.798400443e-10
1.119538785e-07
-1.039469383e-09
1.121937002e-07
-1.211857263e-09
1.124407167e-07
-1.396739233e-09
1.126954499e-07
-1.593834781e-09
1.12958579e-07
-1.80285131e-09
1.132309269e-07
-2.023484796e-09
1.135134464e-07
-2.255417724e-09
1.138072065e-07
-2.498313996e-09
1.141133784e-07
-2.751811164e-09
1.144332212e-07
-3.015510325e-09
1.147680673e-07
-3.288964254e-09
1.151193071e-07
-3.571664152e-09
1.154883727e-07
-3.863025222e-09
1.158767192e-07
-4.162371513e-09
1.162858052e-07
-4.468920588e-09
1.167170706e-07
-4.781768545e-09
1.17171911e-07
-5.099876018e-09
1.176516504e-07
-5.422055865e-09
1.181575107e-07
-5.746963373e-09
1.186905783e-07
-6.073089867e-09
1.19251769e-07
-6.398760686e-09
1.198417912e-07
-6.722138517e-09
1.204611091e-07
-7.04123305e-09
1.21109907e-07
-7.353917804e-09
1.217880565e-07
-7.657954784e-09
1.224950891e-07
-7.951027309e-09
1.232301759e-07
-8.230780869e-09
1.239921173e-07
-8.494871331e-09
1.247793441e-07
-8.741019099e-09
1.255899327e-07
-8.967067077e-09
1.264216341e-07
-9.171039565e-09
1.272719179e-07
-9.351198566e-09
-9.506093633e-09
1.281380291e-07
1.093391859e-07
-4.011488012e-12
1.093667555e-07
-1.209508801e-11
1.094124064e-07
-2.228370735e-11
1.094755668e-07
-3.641149857e-11
1.095554529e-07
-5.609153151e-11
1.096511381e-07
-8.27132794e-11
1.0976158e-07
-1.175225261e-10
1.098856227e-07
-1.61633973e-10
1.100221743e-07
-2.159879654e-10
1.10170131e-07
-2.813857709e-10
1.103284631e-07
-3.584676095e-10
1.104962423e-07
-4.477273683e-10
1.106726671e-07
-5.495317095e-10
1.10857084e-07
-6.641364126e-10
1.110490031e-07
-7.917024839e-10
1.112481067e-07
-9.323128914e-10
1.114542548e-07
-1.085988169e-09
1.116674856e-07
-1.25270018e-09
1.118880121e-07
-1.432383751e-09
1.121162178e-07
-1.624944933e-09
1.123526499e-07
-1.830266813e-09
1.125980111e-07
-2.04821258e-09
1.128531517e-07
-2.278625411e-09
1.131190596e-07
-2.52132553e-09
1.133968501e-07
-2.776104515e-09
1.136877559e-07
-3.042716986e-09
1.139931154e-07
-3.320869866e-09
1.143143607e-07
-3.610209519e-09
1.146530036e-07
-3.910307048e-09
1.150106204e-07
-4.220642025e-09
1.153888339e-07
-4.540585027e-09
1.157892928e-07
-4.86937947e-09
1.162136475e-07
-5.206123305e-09
1.166635228e-07
-5.549751277e-09
1.171404855e-07
-5.899018558e-09
1.176460089e-07
-6.252486762e-09
1.181814325e-07
-6.608513479e-09
1.187479184e-07
-6.965246615e-09
1.193464048e-07
-7.320624923e-09
1.199775579e-07
-7.672386154e-09
1.206417243e-07
-8.018084194e-09
1.213388859e-07
-8.355116363e-09
1.220686203e-07
-8.680761689e-09
1.228300698e-07
-8.992230403e-09
1.236219226e-07
-9.286724127e-09
1.244424088e-07
-9.56150525e-09
1.252893146e-07
-9.813972861e-09
1.261600164e-07
-1.004174143e-08
1.270515352e-07
-1.024271734e-08
-1.041516776e-08
1.279606093e-07
1.093379676e-07
-1.197908945e-11
1.093617349e-07
-3.586239034e-11
1.0940109e-07
-6.16388054e-11
1.094556011e-07
-9.092264182e-11
1.095246691e-07
-1.251594902e-10
1.096075733e-07
-1.65617537e-10
1.097035011e-07
-2.134503107e-10
1.098115823e-07
-2.697151496e-10
1.099309465e-07
-3.353522013e-10
1.100607341e-07
-4.111733094e-10
1.102001343e-07
-4.978678312e-10
1.103484171e-07
-5.960101218e-10
1.105049561e-07
-7.060708007e-10
1.106692485e-07
-8.284287673e-10
1.108409294e-07
-9.633833491e-10
1.110197832e-07
-1.111166742e-09
1.11205751e-07
-1.271955961e-09
1.113989343e-07
-1.44588344e-09
1.115995964e-07
-1.633045836e-09
1.11808162e-07
-1.833510616e-09
1.120252154e-07
-2.047320215e-09
1.122514966e-07
-2.274493726e-09
1.12487897e-07
-2.515025851e-09
1.127354546e-07
-2.768883133e-09
1.129953476e-07
-3.035997463e-09
1.132688875e-07
-3.316256911e-09
1.135575115e-07
-3.609493905e-09
1.138627729e-07
-3.915470917e-09
1.141863297e-07
-4.233863831e-09
1.145299309e-07
-4.564243206e-09
1.148953996e-07
-4.906053747e-09
1.152846125e-07
-5.258592395e-09
1.156994748e-07
-5.620985599e-09
1.1614189e-07
-5.992166501e-09
1.166137244e-07
-6.370852956e-09
1.171167653e-07
-6.755527577e-09
1.17652673e-07
-7.144421211e-09
1.182229279e-07
-7.535501525e-09
1.188287716e-07
-7.926468587e-09
1.194711449e-07
-8.3147595e-09
1.201506249e-07
-8.697564174e-09
1.208673627e-07
-9.07185419e-09
1.216210274e-07
-9.434426363e-09
1.224107589e-07
-9.781961933e-09
1.232351361e-07
-1.011110129e-08
1.240921637e-07
-1.041853283e-08
1.249792836e-07
-1.070109278e-08
1.258934133e-07
-1.095587111e-08
1.268310127e-07
-1.118031675e-08
-1.13723339e-08
1.277881788e-07