/*--------------------------------*- C++ -*----------------------------------*\
| =========                 |                                                 |
| \\      /  F ield         | foam-extend: Open Source CFD                    |
|  \\    /   O peration     | Version:     4.1                                |
|   \\  /    A nd           | Web:         http://www.foam-extend.org         |
|    \\/     M anipulation  |                                                 |
\*---------------------------------------------------------------------------*/
FoamFile
{
    version     2.0;
    format      ascii;
    class       volVectorField;
    location    "40000";
    object      U;
}
// * * * * * * * * * * * * * * * * * * * * * * * * * * * * * * * * * * * * * //

dimensions      [0 1 -1 0 0 0 0];

internalField   nonuniform List<vector> 
15920
(
(0.0002132447748 5.113739003e-06 0)
(0.0002058716256 1.128910635e-05 0)
(0.0001957862954 1.369568561e-05 0)
(0.0001823001482 1.416817567e-05 0)
(0.0001679483393 1.371243404e-05 0)
(0.0001543822502 1.263624603e-05 0)
(0.000141864955 1.112427031e-05 0)
(0.0001303148604 9.40049132e-06 0)
(0.0001198055252 7.662825481e-06 0)
(0.0001104569783 6.037533321e-06 0)
(0.0001022944484 4.592360929e-06 0)
(9.525661331e-05 3.358701587e-06 0)
(8.925080165e-05 2.342571231e-06 0)
(8.417833034e-05 1.531501664e-06 0)
(7.993698682e-05 9.022007041e-07 0)
(7.642285092e-05 4.271298664e-07 0)
(7.353547403e-05 7.862956396e-08 0)
(7.118215934e-05 -1.688585853e-07 0)
(6.92797542e-05 -3.376866796e-07 0)
(6.775500704e-05 -4.466238743e-07 0)
(6.654442934e-05 -5.109689213e-07 0)
(6.559387222e-05 -5.429222603e-07 0)
(6.485782598e-05 -5.520449992e-07 0)
(6.429852342e-05 -5.457094007e-07 0)
(6.388492643e-05 -5.294839819e-07 0)
(6.359138373e-05 -5.073396297e-07 0)
(6.339783308e-05 -4.814527749e-07 0)
(6.328830368e-05 -4.53351356e-07 0)
(6.325470064e-05 -4.247799889e-07 0)
(6.328348355e-05 -4.01637683e-07 0)
(6.33653776e-05 -3.821956435e-07 0)
(6.349418948e-05 -3.642073693e-07 0)
(6.366517149e-05 -3.474941932e-07 0)
(6.387397955e-05 -3.32515026e-07 0)
(6.4116952e-05 -3.194950867e-07 0)
(6.439074386e-05 -3.078826616e-07 0)
(6.469275635e-05 -2.97879827e-07 0)
(6.502085579e-05 -2.891820084e-07 0)
(6.537277978e-05 -2.810680324e-07 0)
(6.574599337e-05 -2.731966364e-07 0)
(6.613788143e-05 -2.655039033e-07 0)
(6.654583167e-05 -2.578744387e-07 0)
(6.69671786e-05 -2.500954457e-07 0)
(6.739915557e-05 -2.419424131e-07 0)
(6.783889801e-05 -2.332228529e-07 0)
(6.828346168e-05 -2.23775841e-07 0)
(6.872983473e-05 -2.134668173e-07 0)
(6.917494841e-05 -2.021878281e-07 0)
(6.961569205e-05 -1.898578262e-07 0)
(7.004893118e-05 -1.764212837e-07 0)
(0.0002201173722 5.633671932e-06 0)
(0.0002251683293 1.290938949e-05 0)
(0.0002303497912 1.655206825e-05 0)
(0.0002340525262 1.84675224e-05 0)
(0.0002359997396 1.955967275e-05 0)
(0.0002364188226 1.995232051e-05 0)
(0.0002354908047 1.969108232e-05 0)
(0.0002333776883 1.891928651e-05 0)
(0.000230309547 1.779508394e-05 0)
(0.0002265486731 1.644090369e-05 0)
(0.0002223318184 1.495151639e-05 0)
(0.0002178521222 1.340658622e-05 0)
(0.0002132655883 1.187165465e-05 0)
(0.0002086977196 1.039624799e-05 0)
(0.0002042453253 9.014467516e-06 0)
(0.0001999783124 7.747356539e-06 0)
(0.000195943659 6.605443444e-06 0)
(0.000192170219 5.591074058e-06 0)
(0.000188672986 4.700584936e-06 0)
(0.0001854565732 3.926250795e-06 0)
(0.0001825180882 3.257895039e-06 0)
(0.0001798494851 2.684135352e-06 0)
(0.0001774394056 2.193303314e-06 0)
(0.0001752745585 1.774092599e-06 0)
(0.0001733407751 1.415993023e-06 0)
(0.0001716238285 1.10952517e-06 0)
(0.0001701099409 8.464334033e-07 0)
(0.00016878503 6.194576973e-07 0)
(0.000167635349 4.225267254e-07 0)
(0.0001666458623 2.494064574e-07 0)
(0.0001658090822 9.639030926e-08 0)
(0.000165114747 -3.920896994e-08 0)
(0.0001645524187 -1.599701357e-07 0)
(0.0001641129092 -2.681656624e-07 0)
(0.0001637886131 -3.65562879e-07 0)
(0.0001635714655 -4.537510844e-07 0)
(0.0001634541668 -5.341435624e-07 0)
(0.0001634302609 -6.075647317e-07 0)
(0.0001634928504 -6.738242116e-07 0)
(0.0001636347855 -7.328030252e-07 0)
(0.0001638493497 -7.845828251e-07 0)
(0.0001641302795 -8.292595103e-07 0)
(0.0001644714974 -8.66881638e-07 0)
(0.0001648669981 -8.974668786e-07 0)
(0.0001653108571 -9.210174458e-07 0)
(0.0001657972411 -9.375274313e-07 0)
(0.0001663203953 -9.469905726e-07 0)
(0.0001668746292 -9.494089596e-07 0)
(0.0001674543111 -9.447986629e-07 0)
(0.0001680538674 -9.331932665e-07 0)
(0.0002187792069 1.461031157e-06 0)
(0.0002200409019 4.369415449e-06 0)
(0.0002226264711 6.981564801e-06 0)
(0.0002259717491 9.31140207e-06 0)
(0.0002295438681 1.138076231e-05 0)
(0.0002331113422 1.30742822e-05 0)
(0.000236507444 1.429623294e-05 0)
(0.000239541403 1.50428702e-05 0)
(0.0002420664905 1.53602524e-05 0)
(0.0002440160881 1.53065678e-05 0)
(0.0002453841605 1.494536562e-05 0)
(0.000246200153 1.434515737e-05 0)
(0.0002465164046 1.357403392e-05 0)
(0.0002463999551 1.269326943e-05 0)
(0.0002459240467 1.175385772e-05 0)
(0.0002451610677 1.079591995e-05 0)
(0.000244178313 9.849464057e-06 0)
(0.0002430359886 8.935607014e-06 0)
(0.0002417864176 8.068023027e-06 0)
(0.0002404739173 7.254480774e-06 0)
(0.0002391351665 6.498301251e-06 0)
(0.0002377999086 5.799621222e-06 0)
(0.0002364918178 5.15642779e-06 0)
(0.0002352293993 4.565371781e-06 0)
(0.0002340268419 4.022378344e-06 0)
(0.0002328947347 3.523049018e-06 0)
(0.0002318406359 3.062828568e-06 0)
(0.0002308696018 2.637394166e-06 0)
(0.0002299848854 2.243012355e-06 0)
(0.0002291888272 1.877677401e-06 0)
(0.0002284830066 1.538257692e-06 0)
(0.000227867276 1.221824302e-06 0)
(0.0002273405794 9.262196527e-07 0)
(0.0002269016155 6.497819884e-07 0)
(0.0002265484901 3.911960511e-07 0)
(0.0002262783909 1.48937905e-07 0)
(0.0002260882903 -7.691972255e-08 0)
(0.0002259752541 -2.86318244e-07 0)
(0.0002259369534 -4.802038979e-07 0)
(0.0002259701716 -6.592419817e-07 0)
(0.0002260716278 -8.235943918e-07 0)
(0.0002262381021 -9.732516774e-07 0)
(0.0002264662466 -1.108208687e-06 0)
(0.0002267525129 -1.228465227e-06 0)
(0.0002270931677 -1.334007139e-06 0)
(0.0002274843148 -1.424814686e-06 0)
(0.0002279219078 -1.500879001e-06 0)
(0.0002284017661 -1.562212108e-06 0)
(0.0002289195936 -1.608853137e-06 0)
(0.0002294709965 -1.640872935e-06 0)
(0.0002187707744 1.477360902e-06 0)
(0.0002194995313 4.296829667e-06 0)
(0.0002207799888 6.680368241e-06 0)
(0.0002224278696 8.514885778e-06 0)
(0.0002242837387 9.894436129e-06 0)
(0.0002263135298 1.092198813e-05 0)
(0.0002285113802 1.164497498e-05 0)
(0.0002308205218 1.209574826e-05 0)
(0.0002331536769 1.231146099e-05 0)
(0.0002354325088 1.232741002e-05 0)
(0.000237597084 1.217339539e-05 0)
(0.0002396012155 1.187699216e-05 0)
(0.0002414115043 1.146557504e-05 0)
(0.0002430089358 1.096546256e-05 0)
(0.0002443882853 1.040072002e-05 0)
(0.0002455553247 9.792623538e-06 0)
(0.000246523627 9.159477289e-06 0)
(0.0002473118442 8.51648412e-06 0)
(0.0002479414966 7.875719795e-06 0)
(0.0002484351843 7.246296367e-06 0)
(0.0002488152411 6.634685865e-06 0)
(0.0002491028303 6.045125096e-06 0)
(0.000249317412 5.48004016e-06 0)
(0.0002494764831 4.940454169e-06 0)
(0.0002495954991 4.426352907e-06 0)
(0.0002496879184 3.937002299e-06 0)
(0.0002497653287 3.471248777e-06 0)
(0.0002498376357 3.027815327e-06 0)
(0.0002499132638 2.605499111e-06 0)
(0.0002499994062 2.203247493e-06 0)
(0.0002501021874 1.819692334e-06 0)
(0.0002502266569 1.453585875e-06 0)
(0.0002503769548 1.104047654e-06 0)
(0.0002505563645 7.704334817e-07 0)
(0.0002507679014 4.525359242e-07 0)
(0.0002510126398 1.507621066e-07 0)
(0.0002512926245 -1.345087356e-07 0)
(0.0002516092402 -4.033797937e-07 0)
(0.0002519624478 -6.566125153e-07 0)
(0.0002523530639 -8.94555589e-07 0)
(0.0002527815622 -1.117049595e-06 0)
(0.0002532477285 -1.323750726e-06 0)
(0.0002537509086 -1.514295905e-06 0)
(0.0002542901781 -1.688316781e-06 0)
(0.0002548643596 -1.845437275e-06 0)
(0.0002554720109 -1.985291433e-06 0)
(0.0002561114337 -2.107544572e-06 0)
(0.0002567806944 -2.21190659e-06 0)
(0.000257477643 -2.298140647e-06 0)
(0.0002581999316 -2.366069462e-06 0)
(0.0002187115071 1.022749138e-06 0)
(0.0002191184148 2.972827163e-06 0)
(0.000219936198 4.703250689e-06 0)
(0.0002210829807 6.155281318e-06 0)
(0.0002224239328 7.340946593e-06 0)
(0.0002238763881 8.284630805e-06 0)
(0.0002254054396 8.993741536e-06 0)
(0.00022698276 9.474986048e-06 0)
(0.0002285753459 9.748287068e-06 0)
(0.000230155206 9.841872096e-06 0)
(0.0002317031537 9.78411126e-06 0)
(0.0002332048258 9.601188898e-06 0)
(0.0002346478598 9.317531886e-06 0)
(0.0002360223956 8.955644508e-06 0)
(0.00023732209 8.535486165e-06 0)
(0.0002385441074 8.074164091e-06 0)
(0.0002396885399 7.585971153e-06 0)
(0.0002407578428 7.082545619e-06 0)
(0.0002417563561 6.573063963e-06 0)
(0.0002426898161 6.064486881e-06 0)
(0.0002435648608 5.56186161e-06 0)
(0.0002443885937 5.068648609e-06 0)
(0.0002451682393 4.587040592e-06 0)
(0.0002459108893 4.11825651e-06 0)
(0.0002466233237 3.662803589e-06 0)
(0.0002473118959 3.220706297e-06 0)
(0.0002479824676 2.791699676e-06 0)
(0.0002486403824 2.375382247e-06 0)
(0.0002492904722 1.971324107e-06 0)
(0.000249937119 1.57913467e-06 0)
(0.0002505842988 1.198543583e-06 0)
(0.0002512355178 8.293587323e-07 0)
(0.000251893887 4.716330487e-07 0)
(0.0002525613041 1.255984568e-07 0)
(0.0002532402838 -2.084242777e-07 0)
(0.0002539347857 -5.299615313e-07 0)
(0.0002546473936 -8.392923671e-07 0)
(0.0002553789502 -1.136505437e-06 0)
(0.0002561304599 -1.420701031e-06 0)
(0.0002569031635 -1.690915964e-06 0)
(0.0002576978925 -1.946363139e-06 0)
(0.0002585149417 -2.186307976e-06 0)
(0.0002593542852 -2.410001308e-06 0)
(0.0002602157051 -2.616691927e-06 0)
(0.0002610987848 -2.805652796e-06 0)
(0.0002620028838 -2.976198654e-06 0)
(0.0002629271406 -3.127698261e-06 0)
(0.0002638704877 -3.259585271e-06 0)
(0.0002648316654 -3.371366535e-06 0)
(0.0002658092338 -3.462628216e-06 0)
(0.0002186959299 7.788063739e-07 0)
(0.0002189839646 2.303623865e-06 0)
(0.0002195807698 3.719740574e-06 0)
(0.0002204470442 4.962446996e-06 0)
(0.0002214902751 6.004692006e-06 0)
(0.0002226403325 6.844253429e-06 0)
(0.0002238591434 7.484891595e-06 0)
(0.0002251189022 7.933499613e-06 0)
(0.0002263911706 8.203946431e-06 0)
(0.000227650851 8.316048521e-06 0)
(0.0002288806257 8.291531783e-06 0)
(0.0002300700976 8.151743756e-06 0)
(0.0002312132252 7.917205903e-06 0)
(0.0002323070405 7.607286362e-06 0)
(0.0002333512592 7.239557997e-06 0)
(0.000234347779 6.829305703e-06 0)
(0.0002352999927 6.389392487e-06 0)
(0.0002362122154 5.930356696e-06 0)
(0.0002370893084 5.460597586e-06 0)
(0.0002379364104 4.986604259e-06 0)
(0.0002387587133 4.513218757e-06 0)
(0.000239561282 4.043913389e-06 0)
(0.0002403489281 3.581059848e-06 0)
(0.0002411261305 3.126174038e-06 0)
(0.0002418969932 2.680131335e-06 0)
(0.0002426652287 2.243354766e-06 0)
(0.0002434341583 1.815973272e-06 0)
(0.000244206732 1.397957327e-06 0)
(0.0002449855506 9.892295129e-07 0)
(0.0002457729984 5.897228025e-07 0)
(0.0002465711982 1.993689158e-07 0)
(0.0002473819814 -1.817544092e-07 0)
(0.0002482070041 -5.534051075e-07 0)
(0.0002490487843 -9.151336002e-07 0)
(0.0002499083929 -1.26679634e-06 0)
(0.000250786622 -1.608327579e-06 0)
(0.0002516841275 -1.939327838e-06 0)
(0.0002526015073 -2.258879676e-06 0)
(0.0002535392961 -2.565775197e-06 0)
(0.0002544978865 -2.858941796e-06 0)
(0.000255477442 -3.137469959e-06 0)
(0.0002564778819 -3.400458501e-06 0)
(0.0002574989304 -3.646958307e-06 0)
(0.0002585401491 -3.87600699e-06 0)
(0.0002596009329 -4.086667591e-06 0)
(0.0002606804995 -4.27804688e-06 0)
(0.0002617778924 -4.449306551e-06 0)
(0.0002628919898 -4.599675838e-06 0)
(0.0002640215155 -4.728463984e-06 0)
(0.0002651650481 -4.835070254e-06 0)
(0.0002186872862 6.078684519e-07 0)
(0.0002189026107 1.803620969e-06 0)
(0.0002193489158 2.928335911e-06 0)
(0.0002200076414 3.931886641e-06 0)
(0.0002208217209 4.787717794e-06 0)
(0.0002217429163 5.489498757e-06 0)
(0.0002227403584 6.038691981e-06 0)
(0.0002237896073 6.439112187e-06 0)
(0.0002248661522 6.697984794e-06 0)
(0.0002259473246 6.826647531e-06 0)
(0.0002270155447 6.839027912e-06 0)
(0.0002280587241 6.749925244e-06 0)
(0.0002290689974 6.574184316e-06 0)
(0.0002300417437 6.326280484e-06 0)
(0.0002309751645 6.019859963e-06 0)
(0.0002318698839 5.667314053e-06 0)
(0.0002327283809 5.279541649e-06 0)
(0.0002335544081 4.865884808e-06 0)
(0.0002343525232 4.434158132e-06 0)
(0.000235127729 3.990731806e-06 0)
(0.0002358851869 3.540660166e-06 0)
(0.0002366299935 3.087842791e-06 0)
(0.0002373670198 2.635203872e-06 0)
(0.000238100805 2.184868607e-06 0)
(0.0002388355004 1.738336956e-06 0)
(0.0002395748469 1.296629574e-06 0)
(0.0002403221825 8.604321138e-07 0)
(0.0002410804491 4.302087206e-07 0)
(0.0002418523501 6.298389249e-09 0)
(0.0002426400456 -4.109768985e-07 0)
(0.0002434454515 -8.213463775e-07 0)
(0.0002442703367 -1.224465828e-06 0)
(0.0002451160951 -1.619981315e-06 0)
(0.0002459837964 -2.007534448e-06 0)
(0.000246874327 -2.386510522e-06 0)
(0.0002477884739 -2.756118966e-06 0)
(0.0002487268359 -3.11540223e-06 0)
(0.0002496897648 -3.463291717e-06 0)
(0.000250677396 -3.798677674e-06 0)
(0.0002516897155 -4.120444205e-06 0)
(0.0002527265718 -4.427461967e-06 0)
(0.0002537876387 -4.718566252e-06 0)
(0.000254872393 -4.992563798e-06 0)
(0.0002559801221 -5.248263549e-06 0)
(0.0002571099352 -5.484505322e-06 0)
(0.0002582607679 -5.700178612e-06 0)
(0.0002594313875 -5.894237802e-06 0)
(0.0002606204022 -6.065717716e-06 0)
(0.0002618262726 -6.213748275e-06 0)
(0.0002630473256 -6.337566324e-06 0)
(0.0002186808996 4.774156308e-07 0)
(0.0002188458448 1.417994097e-06 0)
(0.0002191899129 2.310305711e-06 0)
(0.0002197050813 3.119531819e-06 0)
(0.0002203543094 3.823469981e-06 0)
(0.000221103374 4.412275399e-06 0)
(0.000221927659 4.882528498e-06 0)
(0.000222806746 5.233952936e-06 0)
(0.0002237209006 5.469501343e-06 0)
(0.0002246519218 5.595679985e-06 0)
(0.0002255849235 5.62165697e-06 0)
(0.0002265087717 5.557956863e-06 0)
(0.0002274155116 5.415592416e-06 0)
(0.0002282997903 5.205600256e-06 0)
(0.00022915856 4.93867234e-06 0)
(0.0002299908294 4.624810185e-06 0)
(0.0002307973097 4.27307562e-06 0)
(0.0002315800106 3.891464851e-06 0)
(0.0002323418774 3.486873373e-06 0)
(0.0002330864912 3.065117221e-06 0)
(0.0002338178171 2.630999248e-06 0)
(0.0002345399958 2.188405669e-06 0)
(0.0002352571755 1.74044339e-06 0)
(0.0002359733918 1.289503947e-06 0)
(0.0002366924745 8.37473053e-07 0)
(0.0002374179949 3.857879091e-07 0)
(0.0002381532819 -6.443235681e-08 0)
(0.0002389013203 -5.122838438e-07 0)
(0.0002396646658 -9.570173736e-07 0)
(0.0002404457207 -1.397929893e-06 0)
(0.0002412466145 -1.834290966e-06 0)
(0.0002420692089 -2.265418016e-06 0)
(0.0002429150754 -2.690600966e-06 0)
(0.0002437855239 -3.109027383e-06 0)
(0.0002446816358 -3.519737252e-06 0)
(0.0002456042717 -3.921680439e-06 0)
(0.0002465540571 -4.313744154e-06 0)
(0.0002475313838 -4.694737529e-06 0)
(0.0002485364419 -5.063372701e-06 0)
(0.0002495692451 -5.418276383e-06 0)
(0.0002506296208 -5.758027944e-06 0)
(0.0002517171821 -6.08118902e-06 0)
(0.000252831315 -6.386319905e-06 0)
(0.0002539711872 -6.671996325e-06 0)
(0.000255135761 -6.936830439e-06 0)
(0.0002563238025 -7.179492262e-06 0)
(0.0002575338887 -7.398729488e-06 0)
(0.0002587644197 -7.593385795e-06 0)
(0.0002600136337 -7.762417338e-06 0)
(0.0002612796256 -7.904906524e-06 0)
(0.000218676571 3.759935313e-07 0)
(0.0002188072861 1.118036375e-06 0)
(0.0002190808448 1.826326108e-06 0)
(0.0002194937398 2.475341431e-06 0)
(0.0002200203091 3.046501442e-06 0)
(0.0002206360331 3.529119392e-06 0)
(0.0002213223659 3.917795333e-06 0)
(0.0002220632764 4.210507533e-06 0)
(0.0002228431628 4.408169833e-06 0)
(0.0002236474646 4.514493088e-06 0)
(0.0002244638198 4.535391894e-06 0)
(0.0002252824706 4.478147536e-06 0)
(0.0002260960477 4.3507412e-06 0)
(0.0002268992553 4.161427205e-06 0)
(0.0002276886592 3.918411004e-06 0)
(0.0002284625042 3.629563333e-06 0)
(0.0002292204747 3.302196451e-06 0)
(0.0002299634195 2.942925873e-06 0)
(0.000230693085 2.557607941e-06 0)
(0.0002314118856 2.151324639e-06 0)
(0.0002321227023 1.728418075e-06 0)
(0.0002328287312 1.292490985e-06 0)
(0.000233533262 8.466787996e-07 0)
(0.000234239638 3.934386581e-07 0)
(0.0002349511946 -6.524545794e-08 0)
(0.0002356710889 -5.276724929e-07 0)
(0.000236402301 -9.924061134e-07 0)
(0.0002371476524 -1.458217488e-06 0)
(0.0002379097557 -1.924000008e-06 0)
(0.0002386909971 -2.388744672e-06 0)
(0.0002394935227 -2.85146675e-06 0)
(0.000240319249 -3.311179622e-06 0)
(0.0002411698637 -3.766850383e-06 0)
(0.0002420468198 -4.217366847e-06 0)
(0.000242951334 -4.661525579e-06 0)
(0.0002438843929 -5.098030955e-06 0)
(0.000244846759 -5.525491478e-06 0)
(0.0002458389693 -5.94241194e-06 0)
(0.0002468613353 -6.347199207e-06 0)
(0.0002479139397 -6.738188124e-06 0)
(0.00024899663 -7.113674002e-06 0)
(0.0002501090088 -7.471935968e-06 0)
(0.0002512504311 -7.811252713e-06 0)
(0.0002524200069 -8.129920932e-06 0)
(0.0002536166091 -8.426279603e-06 0)
(0.0002548388818 -8.698736165e-06 0)
(0.0002560852506 -8.945791177e-06 0)
(0.0002573539384 -9.166060689e-06 0)
(0.0002586429836 -9.358296223e-06 0)
(0.0002599502631 -9.521401688e-06 0)
(0.0002186734527 2.9498021e-07 0)
(0.000218779427 8.776139351e-07 0)
(0.0002190015179 1.43537742e-06 0)
(0.0002193384284 1.949029082e-06 0)
(0.0002197717658 2.403644273e-06 0)
(0.0002202838845 2.789569187e-06 0)
(0.0002208611318 3.101066972e-06 0)
(0.0002214911426 3.335186123e-06 0)
(0.0002221615249 3.491358241e-06 0)
(0.0002228605153 3.571209788e-06 0)
(0.000223577884 3.578192032e-06 0)
(0.0002243052688 3.517058281e-06 0)
(0.0002250360985 3.393377705e-06 0)
(0.0002257654318 3.213166674e-06 0)
(0.0002264898302 2.982602584e-06 0)
(0.0002272072321 2.70778141e-06 0)
(0.0002279167887 2.394522819e-06 0)
(0.0002286186708 2.04823219e-06 0)
(0.0002293138696 1.673826767e-06 0)
(0.0002300040288 1.275673375e-06 0)
(0.0002306912227 8.576516798e-07 0)
(0.0002313780465 4.231184983e-07 0)
(0.0002320672128 -2.521160127e-08 0)
(0.0002327613135 -4.848311249e-07 0)
(0.0002334632269 -9.536317902e-07 0)
(0.0002341758609 -1.429792099e-06 0)
(0.0002349019493 -1.911724635e-06 0)
(0.0002356440995 -2.398012856e-06 0)
(0.0002364047941 -2.887347833e-06 0)
(0.0002371863613 -3.378482206e-06 0)
(0.0002379909527 -3.870179647e-06 0)
(0.0002388205321 -4.361177163e-06 0)
(0.0002396768658 -4.850158473e-06 0)
(0.0002405615094 -5.335731382e-06 0)
(0.0002414758002 -5.816409458e-06 0)
(0.0002424208534 -6.290600746e-06 0)
(0.000243397556 -6.756606544e-06 0)
(0.0002444065563 -7.212626977e-06 0)
(0.0002454482531 -7.656772476e-06 0)
(0.0002465227882 -8.087081154e-06 0)
(0.0002476300399 -8.501539836e-06 0)
(0.0002487696159 -8.898106371e-06 0)
(0.000249940847 -9.274733348e-06 0)
(0.0002511427858 -9.629394899e-06 0)
(0.0002523742107 -9.960116527e-06 0)
(0.0002536336347 -1.02650059e-05 0)
(0.0002549193191 -1.054228256e-05 0)
(0.0002562292911 -1.079030551e-05 0)
(0.0002575613676 -1.1007598e-05 0)
(0.0002589131821 -1.119286838e-05 0)
(0.0002186711049 2.288400814e-07 0)
(0.0002187585137 6.809271528e-07 0)
(0.0002189419088 1.114111e-06 0)
(0.0002192211925 1.513626169e-06 0)
(0.0002195827599 1.867550648e-06 0)
(0.0002200136445 2.16750678e-06 0)
(0.0002205037631 2.407870867e-06 0)
(0.0002210436432 2.585163118e-06 0)
(0.0002216235053 2.697840095e-06 0)
(0.0002222339124 2.746158373e-06 0)
(0.0002228665105 2.731910718e-06 0)
(0.0002235142895 2.658063569e-06 0)
(0.000224171558 2.528398971e-06 0)
(0.0002248338752 2.34721675e-06 0)
(0.0002254979949 2.119093541e-06 0)
(0.0002261617933 1.848679323e-06 0)
(0.00022682416 1.540534619e-06 0)
(0.0002274848715 1.198985616e-06 0)
(0.0002281444206 8.281055964e-07 0)
(0.0002288039552 4.315847424e-07 0)
(0.0002294651272 1.268705035e-08 0)
(0.0002301296949 -4.255852741e-07 0)
(0.0002307998831 -8.807393309e-07 0)
(0.0002314782798 -1.350420256e-06 0)
(0.0002321673424 -1.832518508e-06 0)
(0.0002328695699 -2.325230336e-06 0)
(0.0002335874817 -2.826928781e-06 0)
(0.0002343235621 -3.336090087e-06 0)
(0.0002350802186 -3.851255477e-06 0)
(0.000235859752 -4.370995206e-06 0)
(0.0002366643321 -4.893870459e-06 0)
(0.0002374959782 -5.418399359e-06 0)
(0.0002383565409 -5.943030405e-06 0)
(0.0002392476855 -6.466120142e-06 0)
(0.0002401708755 -6.985915798e-06 0)
(0.0002411273577 -7.500545746e-06 0)
(0.0002421181461 -8.008018366e-06 0)
(0.0002431440053 -8.506226906e-06 0)
(0.0002442054347 -8.992959233e-06 0)
(0.0002453026533 -9.465913522e-06 0)
(0.0002464355872 -9.922720412e-06 0)
(0.0002476038566 -1.036097034e-05 0)
(0.0002488067668 -1.07782443e-05 0)
(0.0002500433046 -1.117214726e-05 0)
(0.00025131214 -1.15403438e-05 0)
(0.0002526116357 -1.188059504e-05 0)
(0.000253939862 -1.219079524e-05 0)
(0.0002552946181 -1.246900646e-05 0)
(0.0002566734602 -1.271348983e-05 0)
(0.000258073735 -1.292273194e-05 0)
(0.0002186692956 1.739682859e-07 0)
(0.0002187424217 5.175335457e-07 0)
(0.0002188959905 8.46365518e-07 0)
(0.0002191305419 1.14886732e-06 0)
(0.0002194357193 1.415390677e-06 0)
(0.000219801797 1.638744505e-06 0)
(0.0002202213034 1.813693051e-06 0)
(0.0002206870404 1.93662956e-06 0)
(0.0002211913555 2.005495533e-06 0)
(0.0002217267242 2.019692417e-06 0)
(0.0002222863721 1.979885574e-06 0)
(0.0002228644908 1.88774656e-06 0)
(0.0002234562414 1.745697692e-06 0)
(0.0002240577382 1.556687068e-06 0)
(0.0002246660388 1.323996245e-06 0)
(0.0002252791158 1.051070245e-06 0)
(0.0002258957664 7.414084568e-07 0)
(0.0002265155963 3.98412675e-07 0)
(0.0002271388502 2.526958528e-08 0)
(0.0002277661986 -3.749708354e-07 0)
(0.0002283988792 -7.995487609e-07 0)
(0.0002290385475 -1.245937474e-06 0)
(0.0002296871089 -1.711698364e-06 0)
(0.0002303466943 -2.194778801e-06 0)
(0.0002310195261 -2.693302655e-06 0)
(0.0002317079261 -3.205520852e-06 0)
(0.0002324142886 -3.729786641e-06 0)
(0.0002331410188 -4.264522102e-06 0)
(0.000233890487 -4.808181991e-06 0)
(0.000234665 -5.359217232e-06 0)
(0.0002354667759 -5.916039861e-06 0)
(0.0002362979187 -6.476991382e-06 0)
(0.0002371603937 -7.04031618e-06 0)
(0.0002380560032 -7.604140115e-06 0)
(0.0002389863622 -8.166454745e-06 0)
(0.0002399528749 -8.725108103e-06 0)
(0.0002409567097 -9.277802395e-06 0)
(0.0002419987757 -9.822098427e-06 0)
(0.0002430796976 -1.035542678e-05 0)
(0.0002441997934 -1.087510614e-05 0)
(0.0002453590529 -1.13783687e-05 0)
(0.0002465571196 -1.186239163e-05 0)
(0.0002477932776 -1.23243335e-05 0)
(0.0002490664438 -1.276137477e-05 0)
(0.0002503751677 -1.317076162e-05 0)
(0.0002517176396 -1.354985189e-05 0)
(0.0002530917069 -1.389616108e-05 0)
(0.0002544948989 -1.420740643e-05 0)
(0.0002559244614 -1.448154689e-05 0)
(0.0002573773972 -1.4716817e-05 0)
(0.0002186678675 1.278526005e-07 0)
(0.0002187297337 3.800601983e-07 0)
(0.0002188597524 6.205100088e-07 0)
(0.0002190587974 8.398961974e-07 0)
(0.0002193188082 1.030303396e-06 0)
(0.0002196323669 1.185577761e-06 0)
(0.0002199939113 1.300970683e-06 0)
(0.0002203979868 1.372951253e-06 0)
(0.0002208386226 1.399196303e-06 0)
(0.0002213098354 1.378547477e-06 0)
(0.0002218061582 1.310876813e-06 0)
(0.0002223228262 1.196907469e-06 0)
(0.000222855792 1.03803293e-06 0)
(0.0002234017351 8.361519729e-07 0)
(0.0002239580741 5.935164818e-07 0)
(0.0002245229979 3.126010434e-07 0)
(0.0002250953853 -4.045495566e-09 0)
(0.0002256746585 -3.538196486e-07 0)
(0.0002262608969 -7.342311133e-07 0)
(0.0002268547444 -1.142852876e-06 0)
(0.0002274572133 -1.577345668e-06 0)
(0.0002280696788 -2.03558575e-06 0)
(0.0002286938055 -2.515583003e-06 0)
(0.0002293315021 -3.015512195e-06 0)
(0.0002299848625 -3.5336548e-06 0)
(0.0002306561125 -4.068363366e-06 0)
(0.0002313475689 -4.618046935e-06 0)
(0.0002320615983 -5.181143671e-06 0)
(0.0002328005794 -5.756083813e-06 0)
(0.0002335668713 -6.341253467e-06 0)
(0.0002343627838 -6.934962063e-06 0)
(0.0002351905464 -7.53541296e-06 0)
(0.0002360522784 -8.140677638e-06 0)
(0.0002369499573 -8.74867439e-06 0)
(0.0002378853883 -9.357152341e-06 0)
(0.0002388601714 -9.96368159e-06 0)
(0.0002398756691 -1.056565028e-05 0)
(0.0002409329721 -1.116026922e-05 0)
(0.0002420328662 -1.174458435e-05 0)
(0.0002431758003 -1.231549735e-05 0)
(0.0002443618558 -1.286979442e-05 0)
(0.0002455907214 -1.34041828e-05 0)
(0.000246861672 -1.391533451e-05 0)
(0.0002481735561 -1.439993622e-05 0)
(0.0002495247915 -1.4854744e-05 0)
(0.0002509133715 -1.527664112e-05 0)
(0.0002523368825 -1.566269655e-05 0)
(0.0002537925339 -1.60102215e-05 0)
(0.0002552771981 -1.631682108e-05 0)
(0.0002567874627 -1.658043841e-05 0)
(0.0002186667139 8.870024408e-08 0)
(0.0002187195011 2.632355333e-07 0)
(0.0002188305184 4.281799831e-07 0)
(0.0002190008008 5.759190875e-07 0)
(0.0002192239593 6.998592454e-07 0)
(0.0002194942502 7.947005983e-07 0)
(0.0002198075091 8.561626212e-07 0)
(0.0002201596029 8.808712284e-07 0)
(0.0002205458796 8.66392783e-07 0)
(0.000220961594 8.112165471e-07 0)
(0.00022140236 7.146657202e-07 0)
(0.0002218643078 5.767768819e-07 0)
(0.000222344104 3.981715041e-07 0)
(0.0002228389724 1.799314781e-07 0)
(0.0002233467262 -7.651755308e-08 0)
(0.000223865742 -3.695052766e-07 0)
(0.0002243950044 -6.972440325e-07 0)
(0.0002249340755 -1.057850943e-06 0)
(0.0002254829969 -1.449382761e-06 0)
(0.0002260422698 -1.869988268e-06 0)
(0.0002266127837 -2.317873753e-06 0)
(0.0002271957813 -2.7913248e-06 0)
(0.0002277928133 -3.288700618e-06 0)
(0.0002284056879 -3.808428279e-06 0)
(0.00022903642 -4.348991983e-06 0)
(0.0002296871846 -4.908910208e-06 0)
(0.0002303602799 -5.486710409e-06 0)
(0.0002310580942 -6.080899584e-06 0)
(0.0002317830703 -6.689931347e-06 0)
(0.0002325376717 -7.312173085e-06 0)
(0.0002333243487 -7.94587474e-06 0)
(0.0002341455049 -8.589139479e-06 0)
(0.0002350034618 -9.239897035e-06 0)
(0.0002359004224 -9.895880926e-06 0)
(0.000236838433 -1.055461077e-05 0)
(0.0002378193421 -1.12133808e-05 0)
(0.0002388447585 -1.186925565e-05 0)
(0.0002399160074 -1.251907446e-05 0)
(0.0002410340861 -1.315946396e-05 0)
(0.0002421996207 -1.378686136e-05 0)
(0.0002434128251 -1.439754726e-05 0)
(0.0002446734641 -1.498768882e-05 0)
(0.0002459808237 -1.555339249e-05 0)
(0.0002473336895 -1.609076544e-05 0)
(0.0002487303372 -1.659598402e-05 0)
(0.0002501685359 -1.70653669e-05 0)
(0.0002516455662 -1.749545003e-05 0)
(0.0002531582546 -1.788305993e-05 0)
(0.0002547030227 -1.822538129e-05 0)
(0.0002562759514 -1.852001506e-05 0)
(0.0002186657592 5.520747084e-08 0)
(0.0002187110621 1.632279497e-07 0)
(0.0002188064261 2.63264246e-07 0)
(0.000218952943 3.489598722e-07 0)
(0.0002191454668 4.147310666e-07 0)
(0.0002193794884 4.55969883e-07 0)
(0.0002196518732 4.68811359e-07 0)
(0.0002199594995 4.500528373e-07 0)
(0.0002202987513 3.972409202e-07 0)
(0.0002206658676 3.086515803e-07 0)
(0.0002210573428 1.832313272e-07 0)
(0.0002214700638 2.051440029e-08 0)
(0.000221901318 -1.79466672e-07 0)
(0.0002223488163 -4.162725366e-07 0)
(0.0002228107386 -6.891422823e-07 0)
(0.0002232857528 -9.970768705e-07 0)
(0.0002237730223 -1.338882772e-06 0)
(0.0002242721832 -1.713289315e-06 0)
(0.0002247833031 -2.118964447e-06 0)
(0.0002253068615 -2.55456629e-06 0)
(0.000225843719 -3.018757492e-06 0)
(0.0002263950771 -3.510216501e-06 0)
(0.0002269624398 -4.027645845e-06 0)
(0.0002275475742 -4.5697691e-06 0)
(0.0002281524735 -5.135319924e-06 0)
(0.0002287793214 -5.723020742e-06 0)
(0.0002294304596 -6.331556511e-06 0)
(0.0002301083561 -6.959546608e-06 0)
(0.0002308155715 -7.605514468e-06 0)
(0.0002315547256 -8.267855464e-06 0)
(0.0002323284626 -8.944804417e-06 0)
(0.0002331394149 -9.634404075e-06 0)
(0.0002339901645 -1.033447574e-05 0)
(0.0002348832007 -1.10425934e-05 0)
(0.0002358208744 -1.175606265e-05 0)
(0.0002368053492 -1.247190602e-05 0)
(0.0002378385485 -1.3186856e-05 0)
(0.0002389221008 -1.38973573e-05 0)
(0.0002400572819 -1.459957975e-05 0)
(0.0002412449585 -1.528944292e-05 0)
(0.0002424855324 -1.596265347e-05 0)
(0.0002437788903 -1.661475565e-05 0)
(0.0002451243604 -1.724119467e-05 0)
(0.0002465206796 -1.783739222e-05 0)
(0.0002479659752 -1.839883217e-05 0)
(0.0002494577629 -1.892115371e-05 0)
(0.000250992965 -1.940024826e-05 0)
(0.0002525679488 -1.983235526e-05 0)
(0.0002541785871 -2.02141517e-05 0)
(0.0002558203384 -2.054282963e-05 0)
(0.0002186649578 2.635748229e-08 0)
(0.0002187039817 7.708672989e-08 0)
(0.0002187861979 1.210755448e-07 0)
(0.000218912693 1.528803507e-07 0)
(0.0002190792805 1.676758834e-07 0)
(0.0002192823782 1.614019465e-07 0)
(0.0002195195934 1.305653361e-07 0)
(0.000219788576 7.218167712e-08 0)
(0.0002200865414 -1.621679457e-08 0)
(0.0002204105146 -1.365100895e-07 0)
(0.0002207577025 -2.90018514e-07 0)
(0.0002211256134 -4.775770999e-07 0)
(0.000221512068 -6.996040774e-07 0)
(0.0002219152213 -9.561628028e-07 0)
(0.0002223336047 -1.247025173e-06 0)
(0.0002227661539 -1.571736714e-06 0)
(0.0002232122169 -1.929669093e-06 0)
(0.0002236715491 -2.32007993e-06 0)
(0.0002241442993 -2.742144597e-06 0)
(0.0002246309927 -3.194984855e-06 0)
(0.0002251325096 -3.677692562e-06 0)
(0.0002256500582 -4.189342118e-06 0)
(0.0002261851473 -4.728994359e-06 0)
(0.0002267395594 -5.295691268e-06 0)
(0.0002273153232 -5.888443062e-06 0)
(0.0002279146858 -6.506208606e-06 0)
(0.0002285400842 -7.147870809e-06 0)
(0.0002291941172 -7.812208364e-06 0)
(0.000229879515 -8.49786414e-06 0)
(0.0002305991079 -9.203310914e-06 0)
(0.0002313557916 -9.926815802e-06 0)
(0.0002321524894 -1.066640482e-05 0)
(0.0002329921103 -1.141982889e-05 0)
(0.0002338775016 -1.218453272e-05 0)
(0.0002348113965 -1.295762824e-05 0)
(0.0002357963556 -1.373587432e-05 0)
(0.0002368347034 -1.451566488e-05 0)
(0.0002379284598 -1.529302733e-05 0)
(0.0002390792675 -1.606363341e-05 0)
(0.0002402883181 -1.682282447e-05 0)
(0.0002415562788 -1.756565255e-05 0)
(0.0002428832233 -1.828693869e-05 0)
(0.0002442685701 -1.898134862e-05 0)
(0.0002457110341 -1.964348524e-05 0)
(0.0002472085946 -2.026799615e-05 0)
(0.0002487584846 -2.084969274e-05 0)
(0.0002503572067 -2.138367609e-05 0)
(0.0002520005761 -2.186546353e-05 0)
(0.0002536837934 -2.229110827e-05 0)
(0.0002554015461 -2.265730428e-05 0)
(0.000218664301 1.477714264e-09 0)
(0.0002186980431 2.771225996e-09 0)
(0.0002187690337 -1.715346021e-09 0)