/*--------------------------------*- C++ -*----------------------------------*\
| =========                 |                                                 |
| \\      /  F ield         | foam-extend: Open Source CFD                    |
|  \\    /   O peration     | Version:     4.1                                |
|   \\  /    A nd           | Web:         http://www.foam-extend.org         |
|    \\/     M anipulation  |                                                 |
\*---------------------------------------------------------------------------*/
FoamFile
{
    version     2.0;
    format      ascii;
    class       volVectorField;
    location    "40000";
    object      vorticity;
}
// * * * * * * * * * * * * * * * * * * * * * * * * * * * * * * * * * * * * * //

dimensions      [0 0 -1 0 0 0 0];

internalField   nonuniform List<vector> 
15920
(
(0 -0 -0.008257171807)
(0 -0 -0.008406250432)
(0 -0 -0.008450744999)
(0 -0 -0.008326634776)
(0 -0 -0.008117259819)
(0 -0 -0.007880725549)
(0 -0 -0.007628009061)
(0 -0 -0.007360387096)
(0 -0 -0.007086375392)
(0 -0 -0.006816874642)
(0 -0 -0.006559496128)
(0 -0 -0.006318419452)
(0 -0 -0.006096007797)
(0 -0 -0.005893530262)
(0 -0 -0.005711255537)
(0 -0 -0.005548612545)
(0 -0 -0.005404482372)
(0 -0 -0.005277455472)
(0 -0 -0.005165998935)
(0 -0 -0.00506856366)
(0 -0 -0.00498365781)
(0 -0 -0.004909894048)
(0 -0 -0.00484601431)
(0 -0 -0.004790897613)
(0 -0 -0.004743554787)
(0 -0 -0.004703103465)
(0 -0 -0.004668805772)
(0 -0 -0.004640049854)
(0 -0 -0.004616508151)
(0 -0 -0.004597522308)
(0 -0 -0.004582553437)
(0 -0 -0.004571311193)
(0 -0 -0.004563559495)
(0 -0 -0.004559037798)
(0 -0 -0.004557495492)
(0 -0 -0.004558703805)
(0 -0 -0.004562470946)
(0 -0 -0.004568602039)
(0 -0 -0.00457691297)
(0 -0 -0.004587226473)
(0 -0 -0.004599361568)
(0 -0 -0.004613137011)
(0 -0 -0.00462837522)
(0 -0 -0.004644901259)
(0 -0 -0.004662540938)
(0 -0 -0.004681120155)
(0 -0 -0.004700464901)
(0 -0 -0.004720401328)
(0 -0 -0.0047407559)
(0 -0 -0.004761355681)
(0 -0 0.0003528878947)
(0 -0 -1.042561825e-05)
(0 -0 -0.0003978501925)
(0 -0 -0.0007982419068)
(0 -0 -0.001194790623)
(0 -0 -0.001571296602)
(0 -0 -0.00191867563)
(0 -0 -0.002231930812)
(0 -0 -0.002507178878)
(0 -0 -0.002742271386)
(0 -0 -0.002937652179)
(0 -0 -0.003095867337)
(0 -0 -0.003220570514)
(0 -0 -0.003315862173)
(0 -0 -0.003385963483)
(0 -0 -0.003434989938)
(0 -0 -0.003466763841)
(0 -0 -0.003484698048)
(0 -0 -0.00349175385)
(0 -0 -0.003490445453)
(0 -0 -0.00348286763)
(0 -0 -0.003470735521)
(0 -0 -0.003455430905)
(0 -0 -0.003438050274)
(0 -0 -0.003419452494)
(0 -0 -0.00340030601)
(0 -0 -0.003381107743)
(0 -0 -0.003362223629)
(0 -0 -0.003343854976)
(0 -0 -0.003326260284)
(0 -0 -0.003309567966)
(0 -0 -0.003293870742)
(0 -0 -0.003279232076)
(0 -0 -0.003265692538)
(0 -0 -0.003253270398)
(0 -0 -0.003241967459)
(0 -0 -0.00323175602)
(0 -0 -0.003222579982)
(0 -0 -0.00321441443)
(0 -0 -0.003207252529)
(0 -0 -0.003201086339)
(0 -0 -0.003195902878)
(0 -0 -0.003191686545)
(0 -0 -0.003188420542)
(0 -0 -0.003186086908)
(0 -0 -0.003184666391)
(0 -0 -0.0031841385)
(0 -0 -0.003184481555)
(0 -0 -0.003185672638)
(0 -0 -0.003187687512)
(0 -0 0.0001726931216)
(0 -0 0.0002513893008)
(0 -0 0.0003149457133)
(0 -0 0.0003424730696)
(0 -0 0.0003283920221)
(0 -0 0.0002749926223)
(0 -0 0.0001888031894)
(0 -0 7.774381681e-05)
(0 -0 -5.029015809e-05)
(0 -0 -0.0001880488827)
(0 -0 -0.000329340573)
(0 -0 -0.0004692651597)
(0 -0 -0.0006042155196)
(0 -0 -0.0007317287295)
(0 -0 -0.0008502929363)
(0 -0 -0.0009591500871)
(0 -0 -0.001058107183)
(0 -0 -0.001147368531)
(0 -0 -0.001227398369)
(0 -0 -0.001298815266)
(0 -0 -0.001362314547)
(0 -0 -0.00141861374)
(0 -0 -0.001468416364)
(0 -0 -0.001512389727)
(0 -0 -0.001551152547)
(0 -0 -0.001585270542)
(0 -0 -0.001615249128)
(0 -0 -0.00164154752)
(0 -0 -0.001664551215)
(0 -0 -0.001684689746)
(0 -0 -0.001702258432)
(0 -0 -0.00171753915)
(0 -0 -0.00173079178)
(0 -0 -0.001742244695)
(0 -0 -0.001752106869)
(0 -0 -0.001760526382)
(0 -0 -0.001767650558)
(0 -0 -0.00177366169)
(0 -0 -0.001778715042)
(0 -0 -0.001782950332)
(0 -0 -0.001786494493)
(0 -0 -0.001789464337)
(0 -0 -0.001791968562)
(0 -0 -0.00179410856)
(0 -0 -0.001795978787)
(0 -0 -0.001797667191)
(0 -0 -0.001799255702)
(0 -0 -0.001800820657)
(0 -0 -0.001802433158)
(0 -0 -0.001804159376)
(0 -0 0.0001457087599)
(0 -0 0.0001485249254)
(0 -0 0.0001592568651)
(0 -0 0.0001781270662)
(0 -0 0.0002025762652)
(0 -0 0.000228462553)
(0 -0 0.0002513840915)
(0 -0 0.0002678350107)
(0 -0 0.0002756144362)
(0 -0 0.000273766002)
(0 -0 0.0002623596882)
(0 -0 0.0002422110344)
(0 -0 0.0002145826558)
(0 -0 0.0001809298146)
(0 -0 0.000142718158)
(0 -0 0.0001013081381)
(0 -0 5.789197604e-05)
(0 -0 1.346897907e-05)
(0 -0 -3.11534638e-05)
(0 -0 -7.534382337e-05)
(0 -0 -0.0001186231663)
(0 -0 -0.000160639843)
(0 -0 -0.0002011452042)
(0 -0 -0.0002399719828)
(0 -0 -0.0002770159327)
(0 -0 -0.000312220826)
(0 -0 -0.0003455663081)
(0 -0 -0.0003770593537)
(0 -0 -0.0004067259325)
(0 -0 -0.0004346110048)
(0 -0 -0.0004607673853)
(0 -0 -0.0004852559525)
(0 -0 -0.0005081449607)
(0 -0 -0.0005294815648)
(0 -0 -0.0005493276573)
(0 -0 -0.0005678040118)
(0 -0 -0.0005850356134)
(0 -0 -0.0006011265165)
(0 -0 -0.0006161495237)
(0 -0 -0.000630170765)
(0 -0 -0.000643255174)
(0 -0 -0.0006554679497)
(0 -0 -0.0006668749233)
(0 -0 -0.0006775423785)
(0 -0 -0.000687536707)
(0 -0 -0.0006969240624)
(0 -0 -0.0007057700355)
(0 -0 -0.0007141393346)
(0 -0 -0.0007220955075)
(0 -0 -0.0007297007072)
(0 -0 0.0001013862976)
(0 -0 0.0001023238731)
(0 -0 0.0001035457341)
(0 -0 0.0001055589061)
(0 -0 0.0001091030089)
(0 -0 0.0001147838194)
(0 -0 0.0001228036185)
(0 -0 0.0001328960298)
(0 -0 0.0001444222767)
(0 -0 0.0001565287611)
(0 -0 0.0001683120862)
(0 -0 0.0001789578751)
(0 -0 0.000187826973)
(0 -0 0.0001944867631)
(0 -0 0.0001987035112)
(0 -0 0.0002004130385)
(0 -0 0.0001996822228)
(0 -0 0.0001966698965)
(0 -0 0.0001915922948)
(0 -0 0.0001846954186)
(0 -0 0.0001762345997)
(0 -0 0.0001664604386)
(0 -0 0.0001556098752)
(0 -0 0.0001439011267)
(0 -0 0.0001315313614)
(0 -0 0.0001186761966)
(0 -0 0.0001054903065)
(0 -0 9.210868463e-05)
(0 -0 7.864807561e-05)
(0 -0 6.52086445e-05)
(0 -0 5.187538559e-05)
(0 -0 3.872074659e-05)
(0 -0 2.580500723e-05)
(0 -0 1.315017082e-05)
(0 -0 8.011710675e-07)
(0 -0 -1.125134511e-05)
(0 -0 -2.299365676e-05)
(0 -0 -3.438055887e-05)
(0 -0 -4.539722865e-05)
(0 -0 -5.603800366e-05)
(0 -0 -6.630239554e-05)
(0 -0 -7.619402293e-05)
(0 -0 -8.572003418e-05)
(0 -0 -9.489070739e-05)
(0 -0 -0.0001037191329)
(0 -0 -0.0001122209105)
(0 -0 -0.0001204138407)
(0 -0 -0.0001283176155)
(0 -0 -0.0001359535241)
(0 -0 -0.000143344175)
(0 -0 7.75451731e-05)
(0 -0 7.78394385e-05)
(0 -0 7.821622224e-05)
(0 -0 7.863057176e-05)
(0 -0 7.908939883e-05)
(0 -0 7.967442633e-05)
(0 -0 8.05327781e-05)
(0 -0 8.183942469e-05)
(0 -0 8.374759638e-05)
(0 -0 8.634726122e-05)
(0 -0 8.964456145e-05)
(0 -0 9.356388754e-05)
(0 -0 9.796581365e-05)
(0 -0 0.0001026718391)
(0 -0 0.0001074889928)
(0 -0 0.0001122303323)
(0 -0 0.0001167294556)
(0 -0 0.0001208488211)
(0 -0 0.0001244828465)
(0 -0 0.0001275572703)
(0 -0 0.0001300262065)
(0 -0 0.000131868031)
(0 -0 0.000133080907)
(0 -0 0.0001336784734)
(0 -0 0.0001336859827)
(0 -0 0.0001331370276)
(0 -0 0.0001320707657)
(0 -0 0.0001305300711)
(0 -0 0.0001285565794)
(0 -0 0.0001261949538)
(0 -0 0.0001234900165)
(0 -0 0.0001204842707)
(0 -0 0.0001172213581)
(0 -0 0.0001137153725)
(0 -0 0.0001099892854)
(0 -0 0.0001061129485)
(0 -0 0.0001021473505)
(0 -0 9.812252439e-05)
(0 -0 9.405972463e-05)
(0 -0 8.997659118e-05)
(0 -0 8.58884965e-05)
(0 -0 8.180885016e-05)
(0 -0 7.774913264e-05)
(0 -0 7.371892805e-05)
(0 -0 6.972599381e-05)
(0 -0 6.577634414e-05)
(0 -0 6.187433803e-05)
(0 -0 5.802277424e-05)
(0 -0 5.42229939e-05)
(0 -0 5.047498808e-05)
(0 -0 6.058784209e-05)
(0 -0 6.077408142e-05)
(0 -0 6.102378073e-05)
(0 -0 6.132380397e-05)
(0 -0 6.165961635e-05)
(0 -0 6.201352405e-05)
(0 -0 6.237002253e-05)
(0 -0 6.272544506e-05)
(0 -0 6.30937834e-05)
(0 -0 6.350466139e-05)
(0 -0 6.399598654e-05)
(0 -0 6.460542797e-05)
(0 -0 6.536315304e-05)
(0 -0 6.628689603e-05)
(0 -0 6.737982352e-05)
(0 -0 6.863103386e-05)
(0 -0 7.001792968e-05)
(0 -0 7.150950823e-05)
(0 -0 7.306979505e-05)
(0 -0 7.466093546e-05)
(0 -0 7.624569845e-05)
(0 -0 7.778931716e-05)
(0 -0 7.92606976e-05)
(0 -0 8.063310028e-05)
(0 -0 8.188439762e-05)
(0 -0 8.299705394e-05)
(0 -0 8.395700778e-05)
(0 -0 8.475489132e-05)
(0 -0 8.538805417e-05)
(0 -0 8.585443512e-05)
(0 -0 8.615445063e-05)
(0 -0 8.628957667e-05)
(0 -0 8.626185835e-05)
(0 -0 8.610197776e-05)
(0 -0 8.582052898e-05)
(0 -0 8.542471264e-05)
(0 -0 8.492208823e-05)
(0 -0 8.432058328e-05)
(0 -0 8.362827132e-05)
(0 -0 8.28532208e-05)
(0 -0 8.200337294e-05)
(0 -0 8.108645046e-05)
(0 -0 8.010987542e-05)
(0 -0 7.908070067e-05)
(0 -0 7.800555963e-05)
(0 -0 7.689062859e-05)
(0 -0 7.574159645e-05)
(0 -0 7.456364202e-05)
(0 -0 7.336141985e-05)
(0 -0 7.213905395e-05)
(0 -0 4.759954748e-05)
(0 -0 4.772874342e-05)
(0 -0 4.78998623e-05)
(0 -0 4.810713765e-05)
(0 -0 4.834682561e-05)
(0 -0 4.861412701e-05)
(0 -0 4.890178944e-05)
(0 -0 4.920094076e-05)
(0 -0 4.950296434e-05)
(0 -0 4.980109179e-05)
(0 -0 5.00914189e-05)
(0 -0 5.037345507e-05)
(0 -0 5.065007745e-05)
(0 -0 5.092676773e-05)
(0 -0 5.121035422e-05)
(0 -0 5.150767699e-05)
(0 -0 5.182448892e-05)
(0 -0 5.216471482e-05)
(0 -0 5.253007316e-05)
(0 -0 5.292001491e-05)
(0 -0 5.333190205e-05)
(0 -0 5.376134964e-05)
(0 -0 5.420261301e-05)
(0 -0 5.464908189e-05)
(0 -0 5.509321479e-05)
(0 -0 5.552752502e-05)
(0 -0 5.594583487e-05)
(0 -0 5.634131019e-05)
(0 -0 5.671073767e-05)
(0 -0 5.704912981e-05)
(0 -0 5.735137214e-05)
(0 -0 5.761400547e-05)
(0 -0 5.783439428e-05)
(0 -0 5.801112511e-05)
(0 -0 5.814353491e-05)
(0 -0 5.823144688e-05)
(0 -0 5.827511234e-05)
(0 -0 5.827519523e-05)
(0 -0 5.823274258e-05)
(0 -0 5.814913315e-05)
(0 -0 5.802602162e-05)
(0 -0 5.78652987e-05)
(0 -0 5.766905526e-05)
(0 -0 5.743954111e-05)
(0 -0 5.717912315e-05)
(0 -0 5.689024672e-05)
(0 -0 5.657539996e-05)
(0 -0 5.62370802e-05)
(0 -0 5.587776304e-05)
(0 -0 5.549987438e-05)
(0 -0 3.749968535e-05)
(0 -0 3.758667015e-05)
(0 -0 3.770052584e-05)
(0 -0 3.783744276e-05)
(0 -0 3.799532047e-05)
(0 -0 3.817213716e-05)
(0 -0 3.836524694e-05)
(0 -0 3.857142987e-05)
(0 -0 3.878715286e-05)
(0 -0 3.900868117e-05)
(0 -0 3.923215107e-05)
(0 -0 3.945379016e-05)
(0 -0 3.967025389e-05)
(0 -0 3.98789143e-05)
(0 -0 4.007799874e-05)
(0 -0 4.026658314e-05)
(0 -0 4.044448381e-05)
(0 -0 4.061208434e-05)
(0 -0 4.077012573e-05)
(0 -0 4.091950165e-05)
(0 -0 4.106104723e-05)
(0 -0 4.119550469e-05)
(0 -0 4.132294614e-05)
(0 -0 4.144345906e-05)
(0 -0 4.15571748e-05)
(0 -0 4.166366364e-05)
(0 -0 4.17630268e-05)
(0 -0 4.185456769e-05)
(0 -0 4.193425425e-05)
(0 -0 4.200051836e-05)
(0 -0 4.205236271e-05)
(0 -0 4.208894453e-05)
(0 -0 4.210951072e-05)
(0 -0 4.21134093e-05)
(0 -0 4.210010958e-05)
(0 -0 4.20692196e-05)
(0 -0 4.202049704e-05)
(0 -0 4.195385701e-05)
(0 -0 4.186937219e-05)
(0 -0 4.176726867e-05)
(0 -0 4.164792234e-05)
(0 -0 4.151185631e-05)
(0 -0 4.135973517e-05)
(0 -0 4.11923542e-05)
(0 -0 4.101062587e-05)
(0 -0 4.081556604e-05)
(0 -0 4.060827954e-05)
(0 -0 4.038994488e-05)
(0 -0 4.01617983e-05)
(0 -0 3.992511794e-05)
(0 -0 2.942417642e-05)
(0 -0 2.948537706e-05)
(0 -0 2.956409866e-05)
(0 -0 2.965761754e-05)
(0 -0 2.976448614e-05)
(0 -0 2.988334048e-05)
(0 -0 3.001247822e-05)
(0 -0 3.014994556e-05)
(0 -0 3.02937424e-05)
(0 -0 3.04418893e-05)
(0 -0 3.059239855e-05)
(0 -0 3.074326471e-05)
(0 -0 3.089250547e-05)
(0 -0 3.103822235e-05)
(0 -0 3.117865463e-05)
(0 -0 3.131222318e-05)
(0 -0 3.143756504e-05)
(0 -0 3.155356013e-05)
(0 -0 3.165931922e-05)
(0 -0 3.175423172e-05)
(0 -0 3.183762955e-05)
(0 -0 3.190914234e-05)
(0 -0 3.196883744e-05)
(0 -0 3.201665924e-05)
(0 -0 3.205302097e-05)
(0 -0 3.207805938e-05)
(0 -0 3.209086704e-05)
(0 -0 3.209122511e-05)
(0 -0 3.207900727e-05)
(0 -0 3.205410634e-05)
(0 -0 3.201643824e-05)
(0 -0 3.196594548e-05)
(0 -0 3.190260032e-05)
(0 -0 3.18264121e-05)
(0 -0 3.173743553e-05)
(0 -0 3.163577744e-05)
(0 -0 3.152160106e-05)
(0 -0 3.139513098e-05)
(0 -0 3.125665838e-05)
(0 -0 3.110654504e-05)
(0 -0 3.094522551e-05)
(0 -0 3.077320759e-05)
(0 -0 3.059107136e-05)
(0 -0 3.039946636e-05)
(0 -0 3.01991074e-05)
(0 -0 2.999076942e-05)
(0 -0 2.97752813e-05)
(0 -0 2.955351876e-05)
(0 -0 2.932639616e-05)
(0 -0 2.909485779e-05)
(0 -0 2.282732297e-05)
(0 -0 2.287187899e-05)
(0 -0 2.292802426e-05)
(0 -0 2.299372083e-05)
(0 -0 2.306794633e-05)
(0 -0 2.314975529e-05)
(0 -0 2.323797836e-05)
(0 -0 2.333127601e-05)
(0 -0 2.342826902e-05)
(0 -0 2.352758758e-05)
(0 -0 2.36278692e-05)
(0 -0 2.37277663e-05)
(0 -0 2.382597068e-05)
(0 -0 2.392123656e-05)
(0 -0 2.401239296e-05)
(0 -0 2.409835213e-05)
(0 -0 2.417810352e-05)
(0 -0 2.425076363e-05)
(0 -0 2.431536539e-05)
(0 -0 2.437113974e-05)
(0 -0 2.441761854e-05)
(0 -0 2.445432027e-05)
(0 -0 2.448120278e-05)
(0 -0 2.449790593e-05)
(0 -0 2.450376319e-05)
(0 -0 2.449843925e-05)
(0 -0 2.448171924e-05)
(0 -0 2.445344771e-05)
(0 -0 2.441351433e-05)
(0 -0 2.436185107e-05)
(0 -0 2.429843126e-05)
(0 -0 2.422326949e-05)
(0 -0 2.413642212e-05)
(0 -0 2.403798956e-05)
(0 -0 2.392811886e-05)
(0 -0 2.380700584e-05)
(0 -0 2.367489699e-05)
(0 -0 2.353209169e-05)
(0 -0 2.337894435e-05)
(0 -0 2.32158652e-05)
(0 -0 2.304331998e-05)
(0 -0 2.286182893e-05)
(0 -0 2.267196539e-05)
(0 -0 2.247435364e-05)
(0 -0 2.226966553e-05)
(0 -0 2.205861615e-05)
(0 -0 2.184195864e-05)
(0 -0 2.162047844e-05)
(0 -0 2.13949869e-05)
(0 -0 2.116631426e-05)
(0 -0 1.735229322e-05)
(0 -0 1.738553157e-05)
(0 -0 1.742647237e-05)
(0 -0 1.747353078e-05)
(0 -0 1.752596401e-05)
(0 -0 1.758311105e-05)
(0 -0 1.764416278e-05)
(0 -0 1.770819006e-05)
(0 -0 1.777422523e-05)
(0 -0 1.784129098e-05)
(0 -0 1.790840066e-05)
(0 -0 1.797456864e-05)
(0 -0 1.803883157e-05)
(0 -0 1.810026627e-05)
(0 -0 1.815799657e-05)
(0 -0 1.821121274e-05)
(0 -0 1.825905326e-05)
(0 -0 1.830078746e-05)
(0 -0 1.833588578e-05)
(0 -0 1.836375703e-05)
(0 -0 1.838411263e-05)
(0 -0 1.839658261e-05)
(0 -0 1.840051811e-05)
(0 -0 1.839544628e-05)
(0 -0 1.838104561e-05)
(0 -0 1.835704773e-05)
(0 -0 1.832322501e-05)
(0 -0 1.827939231e-05)
(0 -0 1.822540683e-05)
(0 -0 1.816116718e-05)
(0 -0 1.808661314e-05)
(0 -0 1.800172645e-05)
(0 -0 1.790653197e-05)
(0 -0 1.780109938e-05)
(0 -0 1.768554512e-05)
(0 -0 1.75600343e-05)
(0 -0 1.742478236e-05)
(0 -0 1.728005631e-05)
(0 -0 1.712617556e-05)
(0 -0 1.696351202e-05)
(0 -0 1.679248976e-05)
(0 -0 1.66135839e-05)
(0 -0 1.642731905e-05)
(0 -0 1.623426675e-05)
(0 -0 1.603504209e-05)
(0 -0 1.583029928e-05)
(0 -0 1.562072647e-05)
(0 -0 1.540703998e-05)
(0 -0 1.518997801e-05)
(0 -0 1.497029389e-05)
(0 -0 1.274945325e-05)
(0 -0 1.277484786e-05)
(0 -0 1.280534051e-05)
(0 -0 1.283965601e-05)
(0 -0 1.287723887e-05)
(0 -0 1.291761849e-05)
(0 -0 1.296022256e-05)
(0 -0 1.300438968e-05)
(0 -0 1.304942443e-05)
(0 -0 1.309461658e-05)
(0 -0 1.313924091e-05)
(0 -0 1.318256314e-05)
(0 -0 1.322386053e-05)
(0 -0 1.326240536e-05)
(0 -0 1.329747748e-05)
(0 -0 1.332842777e-05)
(0 -0 1.335472292e-05)
(0 -0 1.337577529e-05)
(0 -0 1.339123612e-05)
(0 -0 1.340071171e-05)
(0 -0 1.340358806e-05)
(0 -0 1.339939149e-05)
(0 -0 1.338775172e-05)
(0 -0 1.336833279e-05)
(0 -0 1.334084299e-05)
(0 -0 1.330502807e-05)
(0 -0 1.326066613e-05)
(0 -0 1.320757013e-05)
(0 -0 1.314558966e-05)
(0 -0 1.307461082e-05)
(0 -0 1.299455648e-05)
(0 -0 1.29053873e-05)
(0 -0 1.280710357e-05)
(0 -0 1.269974721e-05)
(0 -0 1.258340405e-05)
(0 -0 1.245820601e-05)
(0 -0 1.232433284e-05)
(0 -0 1.218201345e-05)
(0 -0 1.203152675e-05)
(0 -0 1.187320213e-05)
(0 -0 1.170741931e-05)
(0 -0 1.153460744e-05)
(0 -0 1.135524337e-05)
(0 -0 1.116984905e-05)
(0 -0 1.09789881e-05)
(0 -0 1.078326162e-05)
(0 -0 1.058330316e-05)
(0 -0 1.037977283e-05)
(0 -0 1.017335087e-05)
(0 -0 9.964730685e-06)
(0 -0 8.840559971e-06)
(0 -0 8.860426022e-06)
(0 -0 8.883614985e-06)
(0 -0 8.909070356e-06)
(0 -0 8.936364341e-06)
(0 -0 8.965154573e-06)
(0 -0 8.995026868e-06)
(0 -0 9.025498721e-06)
(0 -0 9.056058295e-06)
(0 -0 9.086179663e-06)
(0 -0 9.115316162e-06)
(0 -0 9.142892372e-06)
(0 -0 9.168345169e-06)
(0 -0 9.191149396e-06)
(0 -0 9.210790536e-06)
(0 -0 9.226740037e-06)
(0 -0 9.238619908e-06)
(0 -0 9.246037117e-06)
(0 -0 9.248442807e-06)
(0 -0 9.245382469e-06)
(0 -0 9.236473478e-06)
(0 -0 9.221362924e-06)
(0 -0 9.199728191e-06)
(0 -0 9.171274466e-06)
(0 -0 9.135732631e-06)
(0 -0 9.092862145e-06)
(0 -0 9.042451845e-06)
(0 -0 8.984320794e-06)
(0 -0 8.918319179e-06)
(0 -0 8.844328867e-06)
(0 -0 8.762264174e-06)
(0 -0 8.672073317e-06)
(0 -0 8.573740492e-06)
(0 -0 8.467288309e-06)
(0 -0 8.352780313e-06)
(0 -0 8.230323307e-06)
(0 -0 8.100069325e-06)
(0 -0 7.962217185e-06)
(0 -0 7.81701362e-06)
(0 -0 7.664753934e-06)
(0 -0 7.505782054e-06)
(0 -0 7.340489831e-06)
(0 -0 7.169315502e-06)
(0 -0 6.992741267e-06)
(0 -0 6.811290019e-06)
(0 -0 6.625521233e-06)
(0 -0 6.436025944e-06)
(0 -0 6.243420829e-06)
(0 -0 6.048341563e-06)
(0 -0 5.851435647e-06)
(0 -0 5.496006877e-06)
(0 -0 5.511806551e-06)
(0 -0 5.529708861e-06)
(0 -0 5.548827367e-06)
(0 -0 5.56882519e-06)
(0 -0 5.589447601e-06)
(0 -0 5.610386685e-06)
(0 -0 5.631278022e-06)
(0 -0 5.651732374e-06)
(0 -0 5.671348205e-06)
(0 -0 5.689721025e-06)
(0 -0 5.706437894e-06)
(0 -0 5.721046919e-06)
(0 -0 5.73313132e-06)
(0 -0 5.742322719e-06)
(0 -0 5.748249112e-06)
(0 -0 5.750437905e-06)
(0 -0 5.748485955e-06)
(0 -0 5.742028101e-06)
(0 -0 5.730717171e-06)
(0 -0 5.714227213e-06)
(0 -0 5.692252292e-06)
(0 -0 5.664505146e-06)
(0 -0 5.630718315e-06)
(0 -0 5.590644945e-06)
(0 -0 5.544061157e-06)
(0 -0 5.490767725e-06)
(0 -0 5.430590992e-06)
(0 -0 5.363383757e-06)
(0 -0 5.289026263e-06)
(0 -0 5.207427435e-06)
(0 -0 5.118526653e-06)
(0 -0 5.022296117e-06)
(0 -0 4.91874356e-06)
(0 -0 4.807914977e-06)
(0 -0 4.689897137e-06)
(0 -0 4.564819807e-06)
(0 -0 4.432857612e-06)
(0 -0 4.294231468e-06)
(0 -0 4.149209469e-06)
(0 -0 3.998107122e-06)
(0 -0 3.841286888e-06)
(0 -0 3.679156903e-06)
(0 -0 3.512168787e-06)
(0 -0 3.340814503e-06)
(0 -0 3.165622231e-06)
(0 -0 2.987151209e-06)
(0 -0 2.805985567e-06)
(0 -0 2.622727414e-06)
(0 -0 2.437989415e-06)
(0 -0 2.615268951e-06)
(0 -0 2.62833085e-06)
(0 -0 2.642689672e-06)
(0 -0 2.657546868e-06)
(0 -0 2.672622261e-06)
(0 -0 2.687721115e-06)
(0 -0 2.702611545e-06)
(0 -0 2.71702443e-06)
(0 -0 2.730665965e-06)
(0 -0 2.743223691e-06)
(0 -0 2.754371025e-06)
(0 -0 2.763800277e-06)
(0 -0 2.771201661e-06)
(0 -0 2.776226162e-06)
(0 -0 2.778504178e-06)
(0 -0 2.777694815e-06)
(0 -0 2.773469744e-06)
(0 -0 2.765509431e-06)
(0 -0 2.753506884e-06)
(0 -0 2.737167643e-06)
(0 -0 2.716209307e-06)
(0 -0 2.690362435e-06)
(0 -0 2.659370958e-06)
(0 -0 2.622993329e-06)
(0 -0 2.581004128e-06)
(0 -0 2.53319607e-06)
(0 -0 2.479381939e-06)
(0 -0 2.419396058e-06)
(0 -0 2.353095471e-06)
(0 -0 2.280361108e-06)
(0 -0 2.201099256e-06)
(0 -0 2.115243582e-06)
(0 -0 2.022757723e-06)
(0 -0 1.92363821e-06)
(0 -0 1.817917408e-06)
(0 -0 1.705666293e-06)
(0 -0 1.586996944e-06)
(0 -0 1.462064719e-06)
(0 -0 1.331069962e-06)
(0 -0 1.19425915e-06)
(0 -0 1.051925391e-06)
(0 -0 9.044082246e-07)
(0 -0 7.520926255e-07)
(0 -0 5.954070197e-07)
(0 -0 4.348202077e-07)
(0 -0 2.70837188e-07)
(0 -0 1.039938592e-07)
(0 -0 -6.514942003e-08)
(0 -0 -2.360152234e-07)
(0 -0 -4.080170405e-07)
(0 -0 1.307362632e-07)
(0 -0 1.419742708e-07)
(0 -0 1.539777698e-07)
(0 -0 1.659936552e-07)
(0 -0 1.777807586e-07)
(0 -0 1.891889461e-07)
(0 -0 2.000340344e-07)
(0 -0 2.101057984e-07)
(0 -0 2.191856826e-07)
(0 -0 2.270447273e-07)
(0 -0 2.334382028e-07)
(0 -0 2.380933761e-07)
(0 -0 2.407383381e-07)
(0 -0 2.410980009e-07)
(0 -0 2.388953287e-07)
(0 -0 2.338544263e-07)
(0 -0 2.25703396e-07)
(0 -0 2.141757155e-07)
(0 -0 1.990111554e-07)
(0 -0 1.799567893e-07)
(0 -0 1.567674019e-07)
(0 -0 1.292061551e-07)
(0 -0 9.704529876e-08)
(0 -0 6.006730105e-08)
(0 -0 1.806664262e-08)
(0 -0 -2.914794754e-08)
(0 -0 -8.175128483e-08)
(0 -0 -1.398999738e-07)
(0 -0 -2.037310921e-07)
(0 -0 -2.733609365e-07)
(0 -0 -3.488834068e-07)
(0 -0 -4.303678003e-07)
(0 -0 -5.178560452e-07)
(0 -0 -6.113595842e-07)
(0 -0 -7.108561655e-07)
(0 -0 -8.162867697e-07)
(0 -0 -9.27552831e-07)
(0 -0 -1.04451382e-06)
(0 -0 -1.166985246e-06)
(0 -0 -1.294737182e-06)
(0 -0 -1.42749346e-06)
(0 -0 -1.564931591e-06)
(0 -0 -1.706683506e-06)
(0 -0 -1.852337306e-06)
(0 -0 -2.001440278e-06)
(0 -0 -2.153503249e-06)
(0 -0 -2.30800617e-06)
(0 -0 -2.464404937e-06)
(0 -0 -2.622139372e-06)
(0 -0 -2.78064203e-06)
(0 -0 -2.002537606e-06)
(0 -0 -1.992999118e-06)
(0 -0 -1.983101227e-06)
(0 -0 -1.973494156e-06)
(0 -0 -1.964377599e-06)
(0 -0 -1.955867719e-06)
(0 -0 -1.948101568e-06)
(0 -0 -1.941248107e-06)
(0 -0 -1.935486138e-06)
(0 -0 -1.931003823e-06)
(0 -0 -1.927998501e-06)
(0 -0 -1.926678072e-06)
(0 -0 -1.927259984e-06)
(0 -0 -1.929968517e-06)
(0 -0 -1.935031501e-06)
(0 -0 -1.942677499e-06)
(0 -0 -1.953133854e-06)
(0 -0 -1.966625518e-06)
(0 -0 -1.983374294e-06)
(0 -0 -2.003598009e-06)
(0 -0 -2.027509936e-06)
(0 -0 -2.05531838e-06)
(0 -0 -2.087226028e-06)
(0 -0 -2.123428706e-06)
(0 -0 -2.164113373e-06)
(0 -0 -2.209455685e-06)
(0 -0 -2.259617666e-06)
(0 -0 -2.314745886e-06)
(0 -0 -2.374970084e-06)
(0 -0 -2.440401846e-06)
(0 -0 -2.511132902e-06)
(0 -0 -2.587232812e-06)
(0 -0 -2.668746056e-06)
(0 -0 -2.755688716e-06)
(0 -0 -2.84804501e-06)
(0 -0 -2.945763945e-06)
(0 -0 -3.048756295e-06)
(0 -0 -3.156891965e-06)
(0 -0 -3.269997713e-06)
(0 -0 -3.387855327e-06)
(0 -0 -3.510200443e-06)
(0 -0 -3.6367222e-06)
(0 -0 -3.767063811e-06)
(0 -0 -3.900824179e-06)
(0 -0 -4.037560804e-06)
(0 -0 -4.176794268e-06)
(0 -0 -4.318014264e-06)
(0 -0 -4.460687088e-06)
(0 -0 -4.604264431e-06)
(0 -0 -4.748193172e-06)
(0 -0 -3.835753644e-06)
(0 -0 -3.827335292e-06)
(0 -0 -3.818821406e-06)
(0 -0 -3.810791545e-06)
(0 -0 -3.803414377e-06)
(0 -0 -3.796781196e-06)
(0 -0 -3.790999809e-06)
(0 -0 -3.786202757e-06)
(0 -0 -3.782533719e-06)
(0 -0 -3.780142445e-06)
(0 -0 -3.779186017e-06)
(0 -0 -3.779830637e-06)
(0 -0 -3.782251651e-06)
(0 -0 -3.786631714e-06)
(0 -0 -3.793158016e-06)
(0 -0 -3.802019751e-06)
(0 -0 -3.813406498e-06)
(0 -0 -3.827507327e-06)
(0 -0 -3.844510198e-06)
(0 -0 -3.864601402e-06)
(0 -0 -3.887965131e-06)
(0 -0 -3.914783145e-06)
(0 -0 -3.945234152e-06)
(0 -0 -3.979492493e-06)
(0 -0 -4.017726041e-06)
(0 -0 -4.060093695e-06)
(0 -0 -4.106743014e-06)
(0 -0 -4.157808373e-06)
(0 -0 -4.213409562e-06)
(0 -0 -4.273650469e-06)
(0 -0 -4.338617358e-06)
(0 -0 -4.408376491e-06)
(0 -0 -4.482971066e-06)
(0 -0 -4.562417714e-06)
(0 -0 -4.64670285e-06)
(0 -0 -4.735779123e-06)
(0 -0 -4.829562134e-06)
(0 -0 -4.927927519e-06)
(0 -0 -5.030708445e-06)
(0 -0 -5.137693522e-06)
(0 -0 -5.248625268e-06)
(0 -0 -5.363199412e-06)
(0 -0 -5.481065261e-06)
(0 -0 -5.601827278e-06)
(0 -0 -5.72504804e-06)
(0 -0 -5.850252873e-06)
(0 -0 -5.976936317e-06)
(0 -0 -6.104570395e-06)
(0 -0 -6.232614567e-06)
(0 -0 -6.360527012e-06)
(0 -0 -5.404924148e-06)
(0 -0 -5.397065943e-06)
(0 -0 -5.389229219e-06)
(0 -0 -5.381980694e-06)
(0 -0 -5.37547413e-06)
(0 -0 -5.369782654e-06)
(0 -0 -5.36499122e-06)
(0 -0 -5.361205632e-06)
(0 -0 -5.358540786e-06)
(0 -0 -5.357115384e-06)
(0 -0 -5.357053522e-06)
(0 -0 -5.358487227e-06)
(0 -0 -5.361557195e-06)
(0 -0 -5.366411467e-06)
(0 -0 -5.373202968e-06)
(0 -0 -5.382087202e-06)
(0 -0 -5.393220873e-06)
(0 -0 -5.406761265e-06)
(0 -0 -5.422865868e-06)
(0 -0 -5.441692008e-06)
(0 -0 -5.463396558e-06)
(0 -0 -5.488135693e-06)
(0 -0 -5.516064323e-06)
(0 -0 -5.547334803e-06)
(0 -0 -5.582094826e-06)
(0 -0 -5.620484893e-06)
(0 -0 -5.662635936e-06)
(0 -0 -5.708667468e-06)
(0 -0 -5.758686241e-06)
(0 -0 -5.812784984e-06)
(0 -0 -5.871040721e-06)
(0 -0 -5.933512327e-06)
(0 -0 -6.000237335e-06)
(0 -0 -6.07122829e-06)
(0 -0 -6.146468995e-06)
(0 -0 -6.225910807e-06)
(0 -0 -6.309469119e-06)
(0 -0 -6.397020141e-06)
(0 -0 -6.488398139e-06)
(0 -0 -6.583393183e-06)
(0 -0 -6.681749406e-06)
(0 -0 -6.783164014e-06)
(0 -0 -6.887287375e-06)
(0 -0 -6.993724497e-06)
(0 -0 -7.102038113e-06)
(0 -0 -7.211753598e-06)
(0 -0 -7.322365919e-06)
(0 -0 -7.433348769e-06)
(0 -0 -7.544166081e-06)
(0 -0 -7.65428551e-06)
(0 -0 -6.728635136e-06)
(0 -0 -6.721248418e-06)
(0 -0 -6.713928253e-06)
(0 -0 -6.707218586e-06)
(0 -0 -6.701259402e-06)
(0 -0 -6.696109923e-06)
(0 -0 -6.691838e-06)
(0 -0 -6.688529295e-06)
(0 -0 -6.686276554e-06)
(0 -0 -6.685174562e-06)
(0 -0 -6.685321652e-06)
(0 -0 -6.686822646e-06)
(0 -0 -6.689790223e-06)
(0 -0 -6.694344024e-06)
(0 -0 -6.700608378e-06)
(0 -0 -6.708710165e-06)
(0 -0 -6.718777641e-06)
(0 -0 -6.73094007e-06)
(0 -0 -6.745327547e-06)
(0 -0 -6.762070794e-06)
(0 -0 -6.781301003e-06)
(0 -0 -6.803149712e-06)
(0 -0 -6.827748334e-06)
(0 -0 -6.855226916e-06)
(0 -0 -6.885712054e-06)
(0 -0 -6.919324346e-06)
(0 -0 -6.956176028e-06)
(0 -0 -6.996369179e-06)
(0 -0 -7.039994482e-06)
(0 -0 -7.087130047e-06)
(0 -0 -7.137839766e-06)
(0 -0 -7.192170845e-06)
(0 -0 -7.250150563e-06)
(0 -0 -7.31178253e-06)
(0 -0 -7.377042785e-06)
(0 -0 -7.445875973e-06)
(0 -0 -7.518191692e-06)
(0 -0 -7.59386109e-06)
(0 -0 -7.672713852e-06)
(0 -0 -7.754535728e-06)
(0 -0 -7.839066674e-06)
(0 -0 -7.925999748e-06)
(0 -0 -8.014981115e-06)
(0 -0 -8.105611501e-06)
(0 -0 -8.197449337e-06)
(0 -0 -8.290015833e-06)
(0 -0 -8.382802338e-06)
(0 -0 -8.475280556e-06)
(0 -0 -8.566916035e-06)
(0 -0 -8.657183301e-06)
(0 -0 -7.826204249e-06)
(0 -0 -7.819101671e-06)
(0 -0 -7.812059835e-06)
(0 -0 -7.805603663e-06)
(0 -0 -7.799861344e-06)
(0 -0 -7.79488025e-06)
(0 -0 -7.790713874e-06)
(0 -0 -7.787431143e-06)
(0 -0 -7.785106351e-06)
(0 -0 -7.783814203e-06)
(0 -0 -7.783631183e-06)
(0 -0 -7.784638797e-06)
(0 -0 -7.786925457e-06)
(0 -0 -7.79058593e-06)
(0 -0 -7.795719186e-06)
(0 -0 -7.802426348e-06)
(0 -0 -7.810809695e-06)
(0 -0 -7.820972473e-06)
(0 -0 -7.8330189e-06)
(0 -0 -7.847054093e-06)
(0 -0 -7.863184033e-06)
(0 -0 -7.881515559e-06)
(0 -0 -7.902155993e-06)
(0 -0 -7.925211951e-06)
(0 -0 -7.95078726e-06)
(0 -0 -7.978980406e-06)
(0 -0 -8.0098822e-06)
(0 -0 -8.043574089e-06)
(0 -0 -8.080127022e-06)
(0 -0 -8.119600361e-06)
(0 -0 -8.162040258e-06)
(0 -0 -8.207477238e-06)
(0 -0 -8.255922973e-06)
(0 -0 -8.307366463e-06)
(0 -0 -8.361769972e-06)
(0 -0 -8.419065056e-06)
(0 -0 -8.479148854e-06)
(0 -0 -8.541880644e-06)
(0 -0 -8.60707869e-06)
(0 -0 -8.674517587e-06)
(0 -0 -8.743926298e-06)
(0 -0 -8.81498712e-06)
(0 -0 -8.887335846e-06)
(0 -0 -8.960563396e-06)
(0 -0 -9.034219169e-06)
(0 -0 -9.10781606e-06)
(0 -0 -9.180838526e-06)
(0 -0 -9.252754291e-06)
(0 -0 -9.323027567e-06)
(0 -0 -9.391134515e-06)
(0 -0 -8.712785169e-06)
(0 -0 -8.705827233e-06)
(0 -0 -8.698881733e-06)
(0 -0 -8.692458949e-06)
(0 -0 -8.686677652e-06)
(0 -0 -8.681575514e-06)
(0 -0 -8.677194197e-06)
(0 -0 -8.673588735e-06)
(0 -0 -8.670817937e-06)
(0 -0 -8.66893941e-06)
(0 -0 -8.668010825e-06)
(0 -0 -8.668093395e-06)
(0 -0 -8.669254178e-06)
(0 -0 -8.671565765e-06)
(0 -0 -8.675104208e-06)
(0 -0 -8.67994701e-06)
(0 -0 -8.686172247e-06)
(0 -0 -8.693858529e-06)
(0 -0 -8.703085129e-06)
(0 -0 -8.713932026e-06)
(0 -0 -8.726479972e-06)
(0 -0 -8.740810587e-06)
(0 -0 -8.75700607e-06)
(0 -0 -8.775148045e-06)
(0 -0 -8.795315463e-06)
(0 -0 -8.817582047e-06)
(0 -0 -8.842014004e-06)
(0 -0 -8.868668435e-06)
(0 -0 -8.897592302e-06)
(0 -0 -8.92882142e-06)
(0 -0 -8.962378932e-06)
(0 -0 -8.998272926e-06)
(0 -0 -9.0364932e-06)
(0 -0 -9.077007401e-06)
(0 -0 -9.119756864e-06)
(0 -0 -9.164652531e-06)
(0 -0 -9.211571174e-06)
(0 -0 -9.260351927e-06)
(0 -0 -9.310793106e-06)
(0 -0 -9.362649518e-06)
(0 -0 -9.415630628e-06)
(0 -0 -9.469399918e-06)
(0 -0 -9.523575443e-06)
(0 -0 -9.577732002e-06)
(0 -0 -9.631404423e-06)
(0 -0 -9.684092256e-06)
(0 -0 -9.735269914e-06)
(0 -0 -9.784394494e-06)
(0 -0 -9.8309162e-06)
(0 -0 -9.874335664e-06)
(0 -0 -9.400476564e-06)
(0 -0 -9.393564928e-06)
(0 -0 -9.386586724e-06)
(0 -0 -9.380040618e-06)
(0 -0 -9.374037614e-06)
(0 -0 -9.368607198e-06)
(0 -0 -9.363781021e-06)
(0 -0 -9.359602321e-06)
(0 -0 -9.356116629e-06)
(0 -0 -9.353366733e-06)
(0 -0 -9.351393828e-06)
(0 -0 -9.350241171e-06)
(0 -0 -9.349956693e-06)
(0 -0 -9.350592874e-06)
(0 -0 -9.352204701e-06)
(0 -0 -9.354847666e-06)
(0 -0 -9.358576956e-06)
(0 -0 -9.363447517e-06)
(0 -0 -9.369514275e-06)
(0 -0 -9.376832246e-06)
(0 -0 -9.385456687e-06)
(0 -0 -9.395443277e-06)
(0 -0 -9.40684787e-06)
(0 -0 -9.419725349e-06)
(0 -0 -9.434127503e-06)
(0 -0 -9.450100463e-06)
(0 -0 -9.467682436e-06)
(0 -0 -9.486902156e-06)
(0 -0 -9.507777949e-06)
(0 -0 -9.530316868e-06)
(0 -0 -9.554513264e-06)
(0 -0 -9.580346401e-06)
(0 -0 -9.607777157e-06)
(0 -0 -9.636744114e-06)
(0 -0 -9.667159412e-06)
(0 -0 -9.698904631e-06)
(0 -0 -9.731826903e-06)
(0 -0 -9.765735369e-06)
(0 -0 -9.800398029e-06)
(0 -0 -9.835539221e-06)
(0 -0 -9.870838254e-06)
(0 -0 -9.9059296e-06)
(0 -0 -9.940404452e-06)
(0 -0 -9.973815e-06)
(0 -0 -1.000567563e-05)
(0 -0 -1.003547492e-05)
(0 -0 -1.006267279e-05)
(0 -0 -1.008668869e-05)
(0 -0 -1.010697011e-05)
(0 -0 -1.012314174e-05)
(0 -0 -9.89928246e-06)
(0 -0 -9.892350184e-06)
(0 -0 -9.885251667e-06)
(0 -0 -9.87847614e-06)
(0 -0 -9.872128116e-06)
(0 -0 -9.866230034e-06)
(0 -0 -9.860804904e-06)
(0 -0 -9.855885764e-06)
(0 -0 -9.851506568e-06)
(0 -0 -9.847697042e-06)
(0 -0 -9.844483707e-06)
(0 -0 -9.841893659e-06)
(0 -0 -9.83995743e-06)
(0 -0 -9.838709e-06)
(0 -0 -9.838183744e-06)
(0 -0 -9.838416421e-06)
(0 -0 -9.83944037e-06)
(0 -0 -9.84128763e-06)
(0 -0 -9.843989205e-06)
(0 -0 -9.84757522e-06)
(0 -0 -9.852075123e-06)
(0 -0 -9.8575179e-06)
(0 -0 -9.863931843e-06)
(0 -0 -9.871343361e-06)
(0 -0 -9.879774816e-06)
(0 -0 -9.889241918e-06)
(0 -0 -9.899751421e-06)
(0 -0 -9.911299586e-06)
(0 -0 -9.923871329e-06)
(0 -0 -9.937439493e-06)
(0 -0 -9.951963478e-06)
(0 -0 -9.96738681e-06)
(0 -0 -9.983633753e-06)
(0 -0 -1.000060538e-05)
(0 -0 -1.001817545e-05)
(0 -0 -1.003618631e-05)
(0 -0 -1.005444484e-05)
(0 -0 -1.007271874e-05)
(0 -0 -1.009073337e-05)
(0 -0 -1.010816959e-05)
(0 -0 -1.012466321e-05)
(0 -0 -1.013980625e-05)
(0 -0 -1.015315176e-05)
(0 -0 -1.016421953e-05)
(0 -0 -1.017250008e-05)
(0 -0 -1.017749241e-05)
(0 -0 -1.017860271e-05)
(0 -0 -1.017529781e-05)
(0 -0 -1.016724173e-05)
(0 -0 -1.015356635e-05)
(0 -0 -1.021780189e-05)