/*--------------------------------*- C++ -*----------------------------------*\
| =========                 |                                                 |
| \\      /  F ield         | foam-extend: Open Source CFD                    |
|  \\    /   O peration     | Version:     4.1                                |
|   \\  /    A nd           | Web:         http://www.foam-extend.org         |
|    \\/     M anipulation  |                                                 |
\*---------------------------------------------------------------------------*/
FoamFile
{
    version     2.0;
    format      ascii;
    class       volScalarField;
    location    "150000";
    object      p;
}
// * * * * * * * * * * * * * * * * * * * * * * * * * * * * * * * * * * * * * //

dimensions      [0 2 -2 0 0 0 0];

internalField   nonuniform List<scalar> 
15920
(
2.024403937e-08
1.742015477e-08
1.523208948e-08
1.411852763e-08
1.33263862e-08
1.250952421e-08
1.171541067e-08
1.1021924e-08
1.043251549e-08
9.92571272e-09
9.490720401e-09
9.124263471e-09
8.821424647e-09
8.574220815e-09
8.373706755e-09
8.211308485e-09
8.079118987e-09
7.969990656e-09
7.877680538e-09
7.796943947e-09
7.723520678e-09
7.654049232e-09
7.585952844e-09
7.517318384e-09
7.446776107e-09
7.373390495e-09
7.296563277e-09
7.215950216e-09
7.131392969e-09
7.042865452e-09
6.950432681e-09
6.854220279e-09
6.754392544e-09
6.651145707e-09
6.544682737e-09
6.435206801e-09
6.322925115e-09
6.208048764e-09
6.090792878e-09
5.971378425e-09
5.850034851e-09
5.72700492e-09
5.602542603e-09
5.476886137e-09
5.350295818e-09
5.22304667e-09
5.095424134e-09
4.967724088e-09
4.840250522e-09
4.713312431e-09
1.493508019e-08
1.458604641e-08
1.402180214e-08
1.349881695e-08
1.29943244e-08
1.242699988e-08
1.18223754e-08
1.123590246e-08
1.06934455e-08
1.020130892e-08
9.763532654e-09
9.383804896e-09
9.061873695e-09
8.793174438e-09
8.57074869e-09
8.387032846e-09
8.234671671e-09
8.106837228e-09
7.997445669e-09
7.901299762e-09
7.814117083e-09
7.732470298e-09
7.653688967e-09
7.575749531e-09
7.497147274e-09
7.416806717e-09
7.333995117e-09
7.248242526e-09
7.159275311e-09
7.066963467e-09
6.971279475e-09
6.8722663e-09
6.770011062e-09
6.664624823e-09
6.556264213e-09
6.445113508e-09
6.331358088e-09
6.215184001e-09
6.096783506e-09
5.97635746e-09
5.854116675e-09
5.730286945e-09
5.605117451e-09
5.478879661e-09
5.351818973e-09
5.224196976e-09
5.096299149e-09
4.968423395e-09
4.840874666e-09
4.713963467e-09
1.440435111e-08
1.424264257e-08
1.380368849e-08
1.324865224e-08
1.271439349e-08
1.220377164e-08
1.169727408e-08
1.120651815e-08
1.074874589e-08
1.033041853e-08
9.951991996e-09
9.613574105e-09
9.314843001e-09
9.053721555e-09
8.826754351e-09
8.62990671e-09
8.45899161e-09
8.309814069e-09
8.178301882e-09
8.06066066e-09
7.95349033e-09
7.853838615e-09
7.759207716e-09
7.667541077e-09
7.577213528e-09
7.486959036e-09
7.395808321e-09
7.303041713e-09
7.20814613e-09
7.110774444e-09
7.010709623e-09
6.907834999e-09
6.802111005e-09
6.693559351e-09
6.582253928e-09
6.468303627e-09
6.351838158e-09
6.233005595e-09
6.111973889e-09
5.988931066e-09
5.86408489e-09
5.737663264e-09
5.609911986e-09
5.481087779e-09
5.351453461e-09
5.221290557e-09
5.090900981e-09
4.960598544e-09
4.830703844e-09
4.701543393e-09
1.340560281e-08
1.326386897e-08
1.298252319e-08
1.262648219e-08
1.225590513e-08
1.188236616e-08
1.149965215e-08
1.111481745e-08
1.074246065e-08
1.039194348e-08
1.006661996e-08
9.767927548e-09
9.496790432e-09
9.253030354e-09
9.035204192e-09
8.841026404e-09
8.667781581e-09
8.512558264e-09
8.372399497e-09
8.244442516e-09
8.126034136e-09
8.01480085e-09
7.908678891e-09
7.805919385e-09
7.705075928e-09
7.604971208e-09
7.504663483e-09
7.403417248e-09
7.300673983e-09
7.196022656e-09
7.089172841e-09
6.979931945e-09
6.86818684e-09
6.753889163e-09
6.637043834e-09
6.517699547e-09
6.395940841e-09
6.271883168e-09
6.145670462e-09
6.017473652e-09
5.887489154e-09
5.755938298e-09
5.623065482e-09
5.489134356e-09
5.354427872e-09
5.219247007e-09
5.083910969e-09
4.948755173e-09
4.81412636e-09
4.680378361e-09
1.276011481e-08
1.269024309e-08
1.252117385e-08
1.227425658e-08
1.198749842e-08
1.168235357e-08
1.136559189e-08
1.104386505e-08
1.072687307e-08
1.042258931e-08
1.013530228e-08
9.867148542e-09
9.619375288e-09
9.392374539e-09
9.185534156e-09
8.997450464e-09
8.826265585e-09
8.66990098e-09
8.526191519e-09
8.392987018e-09
8.268238892e-09
8.150061256e-09
8.036763977e-09
7.926865082e-09
7.81909017e-09
7.712362595e-09
7.605787874e-09
7.498635669e-09
7.390321024e-09
7.280385248e-09
7.168478081e-09
7.054342019e-09
6.937798891e-09
6.818738595e-09
6.697110274e-09
6.572915135e-09
6.446200009e-09
6.317051922e-09
6.185594451e-09
6.051985834e-09
5.916417031e-09
5.779111019e-09
5.64032516e-09
5.500347267e-09
5.359480023e-09
5.218050818e-09
5.076415166e-09
4.934946588e-09
4.794031052e-09
4.654064569e-09
1.22650385e-08
1.221595059e-08
1.209308561e-08
1.190651143e-08
1.168241045e-08
1.143879701e-08
1.118309382e-08
1.092023433e-08
1.065663056e-08
1.039855846e-08
1.015033189e-08
9.914471949e-09
9.692495133e-09
9.485198402e-09
9.292639443e-09
9.114222855e-09
8.948901657e-09
8.795355737e-09
8.652107893e-09
8.517609219e-09
8.390313742e-09
8.268738745e-09
8.151505699e-09
8.037364059e-09
7.925202938e-09
7.814053717e-09
7.703085704e-09
7.591597514e-09
7.479006424e-09
7.364837237e-09
7.24871097e-09
7.130334264e-09
7.009489964e-09
6.886029162e-09
6.759864501e-09
6.630964027e-09
6.499346246e-09
6.365076492e-09
6.228264511e-09
6.089062165e-09
5.947659595e-09
5.804286867e-09
5.65921032e-09
5.512740934e-09
5.365202025e-09
5.216948236e-09
5.068373433e-09
4.919894224e-09
4.771942498e-09
4.624962632e-09
1.187225604e-08
1.183542766e-08
1.174438435e-08
1.160443672e-08
1.143173563e-08
1.123849723e-08
1.103102956e-08
1.081392208e-08
1.059239659e-08
1.037162897e-08
1.015559016e-08
9.94690354e-09
9.747274425e-09
9.557766254e-09
9.378848936e-09
9.210443294e-09
9.05204024e-09
8.902834823e-09
8.761829722e-09
8.62791264e-09
8.49992133e-09
8.376698027e-09
8.25713011e-09
8.140177234e-09
8.024887745e-09
7.910407179e-09
7.795980738e-09
7.680951647e-09
7.56475699e-09
7.446922129e-09
7.327054397e-09
7.204837077e-09
7.080023849e-09
6.952433696e-09
6.82194703e-09
6.688502485e-09
6.55209227e-09
6.412756874e-09
6.270589406e-09
6.125733605e-09
5.978378602e-09
5.828758355e-09
5.677154051e-09
5.523882491e-09
5.369318104e-09
5.213868927e-09
5.057963223e-09
4.902058016e-09
4.746636202e-09
4.592197219e-09
1.155743202e-08
1.152943163e-08
1.146000477e-08
1.135181919e-08
1.12153252e-08
1.105907057e-08
1.088828812e-08
1.070711688e-08
1.051984268e-08
1.033058578e-08
1.01426874e-08
9.958568043e-09
9.779924194e-09
9.607904152e-09
9.443167849e-09
9.285924626e-09
9.13600946e-09
8.992978027e-09
8.856189198e-09
8.724869423e-09
8.598166022e-09
8.475192681e-09
8.355065823e-09
8.236931545e-09
8.119984142e-09
8.003478356e-09
7.886736502e-09
7.769151753e-09
7.650188909e-09
7.529383224e-09
7.406338259e-09
7.280723616e-09
7.152273289e-09
7.02078338e-09
6.886107523e-09
6.748158055e-09
6.606912926e-09
6.462398971e-09
6.314693674e-09
6.163929803e-09
6.010300912e-09
5.854055453e-09
5.695490434e-09
5.534950692e-09
5.372838848e-09
5.209599742e-09
5.04571128e-09
4.881687007e-09
4.718071801e-09
4.555431639e-09
1.13020134e-08
1.127999006e-08
1.122528473e-08
1.113939503e-08
1.102964413e-08
1.090213668e-08
1.07608487e-08
1.060910624e-08
1.045031868e-08
1.028776122e-08
1.012420246e-08
9.961789253e-09
9.802124449e-09
9.646361175e-09
9.495250207e-09
9.349173084e-09
9.208193227e-09
9.072120738e-09
8.940574026e-09
8.813031486e-09
8.688875308e-09
8.567429681e-09
8.44799284e-09
8.329862636e-09
8.212355639e-09
8.094821133e-09
7.976650789e-09
7.857284932e-09
7.736217255e-09
7.612996455e-09
7.48722706e-09
7.358570318e-09
7.226743755e-09
7.091526972e-09
6.952758272e-09
6.810329328e-09
6.664183066e-09
6.514330865e-09
6.360845922e-09
6.203862039e-09
6.043575434e-09
5.880243325e-09
5.714183424e-09
5.545775102e-09
5.375455321e-09
5.203715584e-09
5.031095124e-09
4.858174581e-09
4.685570215e-09
4.513926121e-09
1.109320937e-08
1.107548874e-08
1.103147752e-08
1.096208302e-08
1.087264149e-08
1.076753536e-08
1.064966538e-08
1.052161117e-08
1.038609782e-08
1.024577208e-08
1.010292506e-08
9.959408249e-09
9.816669037e-09
9.675798926e-09
9.537562188e-09
9.402420201e-09
9.270566639e-09
9.141972011e-09
9.016428692e-09
8.893591286e-09
8.773012141e-09
8.654172908e-09
8.536511988e-09
8.419447329e-09
8.302394545e-09
8.184780792e-09
8.066055338e-09
7.945697218e-09
7.823226085e-09
7.698202234e-09
7.570229388e-09
7.438961812e-09
7.304105595e-09
7.165414114e-09
7.02269684e-09
6.875824517e-09
6.724728374e-09
6.569405076e-09
6.409917323e-09
6.246394589e-09
6.079035951e-09
5.908112156e-09
5.733965997e-09
5.557011203e-09
5.377729749e-09
5.196669581e-09
5.014438296e-09
4.831694564e-09
4.649139882e-09
4.467510415e-09
1.092188364e-08
1.090738872e-08
1.08713871e-08
1.081443531e-08
1.074054391e-08
1.065293118e-08
1.055371769e-08
1.044488424e-08
1.032859596e-08
1.020698286e-08
1.008191757e-08
9.954957005e-09
9.827363176e-09
9.700125302e-09
9.573971457e-09
9.449382905e-09
9.3266179e-09
9.205742315e-09
9.086661691e-09
8.969151528e-09
8.852885271e-09
8.737459803e-09
8.622418559e-09
8.507271045e-09
8.391509236e-09
8.274620659e-09
8.156097911e-09
8.035439859e-09
7.912196668e-09
7.785929301e-09
7.656239734e-09
7.522765872e-09
7.385188967e-09
7.243241105e-09
7.096709868e-09
6.94544207e-09
6.789346806e-09
6.628400486e-09
6.46265154e-09
6.292223867e-09
6.117320427e-09
5.938226589e-09
5.755311898e-09
5.56902958e-09
5.379914143e-09
5.188578115e-09
4.995707091e-09
4.80205185e-09
4.608417565e-09
4.415651736e-09
1.078119627e-08
1.076917453e-08
1.073931323e-08
1.069195715e-08
1.063020627e-08
1.055647946e-08
1.047233219e-08
1.03792674e-08
1.027898675e-08
1.017319346e-08
1.006340839e-08
9.950924989e-09
9.836821881e-09
9.721970698e-09
9.607036521e-09
9.492484037e-09
9.378592745e-09
9.265477577e-09
9.153111221e-09
9.041346233e-09
8.929936617e-09
8.818558229e-09
8.706828053e-09
8.594320465e-09
8.480581665e-09
8.365144346e-09
8.247545788e-09
8.127227727e-09
8.003826729e-09
7.87688162e-09
7.745967789e-09
7.610704898e-09
7.470751482e-09
7.325811168e-09
7.175638904e-09
7.020048249e-09
6.858918491e-09
6.692201084e-09
6.519926054e-09
6.342207869e-09
6.159250752e-09
5.971353506e-09
5.778913072e-09
5.582425655e-09
5.38248504e-09
5.179778904e-09
4.975083744e-09
4.76925733e-09
4.563226974e-09
4.357974273e-09
1.0665903e-08
1.065582045e-08
1.063077569e-08
1.059098175e-08
1.053888597e-08
1.047633908e-08
1.040448618e-08
1.032446214e-08
1.023759935e-08
1.014525706e-08
1.004866598e-08
9.948890798e-09
9.846838229e-09
9.743257945e-09
9.638737022e-09
9.533700196e-09
9.428418515e-09
9.323022702e-09
9.217518268e-09
9.11180118e-09
9.005673785e-09
8.898861047e-09
8.791027887e-09
8.681789945e-09
8.570722408e-09
8.457374493e-09
8.341271501e-09
8.222032216e-09
8.099094207e-09
7.972023445e-09
7.840389819e-09
7.703782232e-09
7.561822898e-09
7.414174809e-09
7.260550895e-09
7.100723557e-09
6.934533263e-09
6.761897041e-09
6.582817669e-09
6.397392728e-09
6.205822463e-09
6.008416217e-09
5.805597489e-09
5.597907241e-09
5.386004451e-09
5.170663235e-09
4.952766937e-09
4.733299264e-09
4.513331162e-09
4.294003217e-09
1.057189485e-08
1.056336443e-08
1.054217537e-08
1.050845609e-08
1.04641708e-08
1.041075756e-08
1.034906428e-08
1.027994772e-08
1.020444999e-08
1.012365323e-08
1.003854823e-08
9.950003278e-09
9.858769656e-09
9.765479339e-09
9.670636269e-09
9.574612692e-09
9.477653005e-09
9.379881885e-09
9.281314027e-09
9.181864513e-09
9.081358976e-09
8.97954423e-09
8.876117024e-09
8.770718478e-09
8.662930696e-09
8.552327909e-09
8.438442974e-09
8.320805986e-09
8.198916941e-09
8.072297361e-09
7.940477219e-09
7.803001723e-09
7.659443802e-09
7.509414238e-09
7.352571795e-09
7.188633931e-09
7.017388115e-09
6.838703669e-09
6.652544052e-09
6.458978993e-09
6.258195462e-09
6.050506826e-09
5.836360293e-09
5.616342774e-09
5.391184041e-09
5.1617554e-09
4.929063541e-09
4.694240483e-09
4.458528634e-09
4.223259447e-09
1.04958848e-08
1.048862055e-08
1.047057722e-08
1.04418283e-08
1.040397106e-08
1.03581376e-08
1.030495893e-08
1.024508201e-08
1.017932135e-08
1.010853647e-08
1.003352136e-08
9.95497856e-09
9.873523178e-09
9.789678824e-09
9.703867432e-09
9.616403312e-09
9.527493736e-09
9.437243534e-09
9.345661407e-09
9.252666208e-09
9.158089257e-09
9.061650448e-09
8.963096686e-09
8.862066328e-09
8.758159382e-09
8.650914996e-09
8.539857439e-09
8.424488564e-09
8.304290971e-09
8.17874013e-09
8.047313939e-09
7.909501286e-09
7.764812732e-09
7.612791316e-09
7.453024249e-09
7.285156244e-09
7.108904227e-09
6.924072728e-09
6.730569396e-09
6.528420408e-09
6.317785278e-09
6.09897027e-09
5.872439868e-09
5.63882609e-09
5.398934711e-09
5.153745947e-09
4.904408185e-09
4.652226437e-09
4.398646236e-09
4.145229562e-09
1.043519272e-08
1.042898071e-08
1.041355172e-08
1.038894367e-08
1.035646841e-08
1.031702654e-08
1.027108946e-08
1.021914578e-08
1.016183224e-08
1.009983042e-08
1.003377405e-08
9.964227418e-09
9.891688298e-09
9.816583155e-09
9.739256528e-09
9.659963823e-09
9.578869837e-09
9.496051016e-09
9.411500678e-09
9.32513961e-09
9.236846348e-09
9.14608979e-09
9.052867185e-09
8.956747426e-09
8.857290979e-09
8.754029156e-09
8.646458409e-09
8.534042586e-09
8.416218963e-09
8.292407969e-09
8.162023533e-09
8.02448246e-09
7.879214962e-09
7.725676748e-09
7.563362997e-09
7.391824478e-09
7.210685539e-09
7.019663159e-09
6.818586331e-09
6.607415668e-09
6.386263301e-09
6.15541226e-09
5.915333574e-09
5.666699887e-09
5.410395317e-09
5.147519844e-09
4.879384777e-09
4.607499097e-09
4.333549723e-09
4.059374611e-09
1.038759314e-08
1.038227165e-08
1.036905506e-08
1.034795855e-08
1.032006715e-08
1.028610305e-08
1.024641945e-08
1.020138555e-08
1.015149942e-08
1.009730093e-08
1.003929391e-08
9.977928265e-09
9.913602083e-09
9.846656563e-09
9.777365639e-09
9.705928166e-09
9.632464487e-09
9.557015328e-09
9.479540228e-09
9.399912389e-09
9.317896264e-09
9.23352446e-09
9.146169913e-09
9.055509882e-09
8.961121095e-09
8.862509548e-09
8.759132759e-09
8.650405673e-09
8.535707729e-09
8.414391581e-09
8.285791979e-09
8.149235345e-09
8.00405122e-09
7.849585904e-09
7.685218601e-09
7.510380248e-09
7.324574715e-09
7.127401856e-09
6.918581772e-09
6.697980041e-09
6.465634099e-09
6.221780255e-09
5.966878731e-09
5.701633594e-09
5.42700686e-09
5.144227127e-09
4.854789526e-09
4.560442838e-09
4.263165073e-09
3.96512964e-09
1.035120455e-08
1.034665036e-08
1.033533943e-08
1.031727307e-08
1.029335238e-08
1.026415984e-08
1.022996074e-08
1.019103445e-08
1.014777103e-08
1.010059783e-08
1.004991405e-08
9.996075852e-09
9.939397747e-09
9.880147657e-09
9.818537242e-09
9.754713932e-09
9.688756398e-09
9.620672349e-09
9.550396606e-09
9.477792689e-09
9.402657699e-09
9.324755816e-09
9.243690689e-09
9.159054201e-09
9.070377519e-09
8.97712641e-09
8.878708936e-09
8.774481013e-09
8.663752178e-09
8.545792488e-09
8.419840489e-09
8.285112814e-09
8.140816219e-09
7.986162565e-09
7.820387007e-09
7.642769268e-09
7.452657918e-09
7.24949789e-09
7.032861142e-09
6.802479648e-09
6.558279876e-09
6.300418332e-09
6.029316513e-09
5.745691193e-09
5.450576621e-09
5.145338651e-09
4.831679398e-09
4.511626957e-09
4.187508044e-09
3.861906276e-09
1.032440781e-08
1.032052644e-08
1.031088532e-08
1.029547814e-08
1.027505419e-08
1.025008491e-08
1.022077033e-08
1.018732254e-08
1.015004782e-08
1.010928455e-08
1.006534835e-08
1.001851947e-08
9.969043399e-09
9.917126357e-09
9.862926639e-09
9.806546526e-09
9.748027068e-09
9.687345013e-09
9.624409809e-09
9.559061775e-09
9.491073608e-09
9.420151176e-09
9.345916188e-09
9.267923196e-09
9.185660781e-09
9.098548233e-09
9.005937554e-09
8.907116826e-09
8.801314148e-09
8.687702874e-09
8.565408553e-09
8.433517983e-09
8.291091312e-09
8.137177891e-09
7.970836027e-09
7.791156537e-09
7.597290298e-09
7.388480633e-09
7.164101337e-09
6.92369953e-09
6.667041078e-09
6.394156845e-09
6.105389222e-09
5.8014362e-09
5.483387498e-09
5.152749348e-09
4.811456344e-09
4.461864529e-09
4.106720538e-09
3.749109709e-09
1.030578509e-08
1.03025037e-08
1.029434975e-08
1.028131381e-08
1.026401799e-08
1.02428444e-08
1.021794487e-08
1.018948172e-08
1.015769651e-08
1.012285781e-08
1.008521538e-08
1.00449896e-08
1.000236952e-08
9.95751053e-09
9.910526999e-09
9.861481728e-09
9.810384554e-09
9.757184681e-09
9.70176627e-09
9.643946629e-09
9.583474286e-09
9.520026204e-09
9.453202552e-09
9.382526925e-09
9.307446659e-09
9.227331029e-09
9.141470825e-09
9.04907917e-09
8.949293108e-09
8.8411767e-09
8.723726351e-09
8.595878867e-09
8.456522935e-09
8.304514695e-09
8.138697987e-09
7.957929952e-09
7.761112545e-09
7.547230645e-09
7.315397766e-09
7.06490949e-09
6.795302477e-09
6.506415924e-09
6.198454273e-09
5.872049627e-09
5.528317439e-09
5.168897843e-09
4.795979318e-09
4.412299517e-09
4.02111407e-09
3.62613206e-09
1.029407499e-08
1.029133679e-08
1.028452704e-08
1.02736369e-08
1.025918095e-08
1.024146809e-08
1.02206149e-08
1.019674763e-08
1.017005812e-08
1.014076046e-08
1.01090542e-08
1.007511708e-08
1.003908954e-08
1.000108427e-08
9.961187057e-09
9.91942245e-09
9.875778759e-09
9.830182716e-09
9.782497013e-09
9.732519628e-09
9.679979084e-09
9.624529632e-09
9.565746516e-09
9.503122441e-09
9.436064754e-09
9.36389226e-09
9.285832384e-09
9.201019012e-09
9.108491213e-09
9.007193564e-09
8.895979036e-09
8.773615084e-09
8.638793434e-09
8.490144129e-09
8.326254999e-09
8.145698343e-09
7.947066322e-09
7.729015554e-09
7.490321234e-09
7.229941641e-09
6.947092699e-09
6.64132966e-09
6.31263284e-09
5.961495506e-09
5.589007338e-09
5.19692156e-09
4.787697762e-09
4.36451543e-09
3.931246701e-09
3.492379716e-09
1.028814119e-08
1.028590005e-08
1.028032154e-08
1.027139647e-08
1.025955295e-08
1.024503683e-08
1.022793866e-08
1.020835961e-08
1.018645332e-08
1.016239052e-08
1.013633118e-08
1.010845011e-08
1.007882092e-08
1.004752918e-08
1.001462353e-08
9.980130881e-09
9.944013247e-09
9.906177727e-09
9.866473967e-09
9.824686787e-09
9.780530135e-09
9.733641051e-09
9.68357362e-09
9.629793248e-09
9.571671127e-09
9.508478519e-09
9.439380831e-09
9.363432012e-09
9.279569917e-09
9.186613168e-09
9.083260322e-09
8.968092301e-09
8.839578825e-09
8.696089637e-09
8.535911972e-09
8.357276791e-09
8.158396439e-09
7.937514935e-09
7.692970912e-09
7.42327432e-09
7.127199075e-09
6.803890531e-09
6.452982531e-09
6.074719589e-09
5.670078522e-09
5.240875908e-09
4.789845919e-09
4.320677879e-09
3.837998079e-09
3.347278829e-09
1.028695644e-08
1.028514036e-08
1.028071516e-08
1.02736128e-08
1.026420379e-08
1.025267331e-08
1.023909725e-08
1.022356101e-08
1.020618924e-08
1.018711519e-08
1.016641852e-08
1.014446583e-08
1.012108027e-08
1.009638533e-08
1.007043883e-08
1.004324388e-08
1.001475001e-08
9.984856866e-09
9.953408358e-09
9.92018356e-09
9.884889466e-09
9.847153611e-09
9.806516515e-09
9.76242385e-09
9.714218133e-09
9.661129904e-09
9.602268303e-09
9.536611561e-09
9.462998191e-09
9.38011934e-09
9.286512876e-09
9.18056017e-09
9.060486892e-09
8.924369352e-09
8.770148224e-09
8.595652215e-09
8.398635026e-09
8.176828581e-09
7.928014006e-09
7.650111813e-09
7.341295005e-09
7.000127162e-09
6.625720362e-09
6.21790517e-09
5.777406442e-09
5.306011193e-09
4.806704653e-09
4.283752215e-09
3.742703519e-09
3.190289636e-09
1.028953286e-08
1.028818573e-08
1.028478287e-08
1.02793399e-08
1.027224589e-08
1.026353378e-08
1.025328984e-08
1.024159814e-08
1.022856923e-08
1.021436484e-08
1.019911184e-08
1.018264771e-08
1.016532125e-08
1.014714452e-08
1.012813272e-08
1.010827324e-08
1.008751441e-08
1.006575785e-08
1.004284909e-08
1.001857006e-08
9.992630726e-09
9.964659731e-09
9.93419506e-09
9.900674023e-09
9.863422073e-09
9.8216406e-09
9.774393745e-09
9.720594431e-09
9.658990278e-09
9.588150094e-09
9.506451428e-09
9.412069808e-09
9.302971192e-09
9.176910223e-09
9.031437069e-09
8.863915279e-09
8.67155383e-09
8.451458492e-09
8.200707745e-09
7.916456494e-09
7.596071411e-09
7.237302912e-09
6.838492998e-09
6.398810723e-09
5.918506667e-09
5.399171535e-09
4.843966246e-09
4.257783802e-09
3.647303542e-09
3.020889575e-09
1.029493285e-08
1.029397486e-08
1.029161578e-08
1.028790899e-08
1.028288986e-08
1.027681404e-08
1.026972433e-08
1.026170272e-08
1.025284366e-08
1.024322875e-08
1.02329835e-08
1.022215752e-08
1.021086606e-08
1.01991649e-08
1.018708008e-08
1.017460574e-08
1.016169847e-08
1.014827045e-08
1.013418064e-08
1.011922555e-08
1.010313002e-08
1.008553702e-08
1.006599635e-08
1.00439522e-08
1.001872917e-08
9.989516597e-09
9.955351283e-09
9.915098464e-09
9.867431509e-09
9.810811119e-09
9.743464558e-09
9.663365282e-09
9.568214298e-09
9.455426353e-09
9.322124722e-09
9.165147771e-09
8.981070511e-09
8.766247531e-09
8.51688692e-09
8.229162873e-09
7.899372093e-09
7.524141856e-09
7.100696749e-09
6.627180704e-09
6.103023424e-09
5.529333086e-09
4.909274395e-09
4.248370208e-09
3.554660464e-09
2.838638869e-09
1.030233052e-08
1.03017532e-08
1.03003322e-08
1.029809943e-08
1.029516117e-08
1.029162695e-08
1.028756565e-08
1.028304375e-08
1.027816988e-08
1.027304094e-08
1.026775485e-08
1.026238982e-08
1.025703272e-08
1.025174922e-08
1.024657579e-08
1.024152228e-08
1.023656519e-08
1.023163802e-08
1.022662378e-08
1.022134621e-08
1.021555948e-08
1.020893671e-08
1.020105685e-08
1.019139012e-08
1.017928146e-08
1.016393127e-08
1.014437361e-08
1.01194519e-08
1.008779194e-08
1.004777249e-08
9.997494008e-09
9.934746118e-09
9.856975148e-09
9.761253973e-09
9.644258008e-09
9.502252073e-09
9.331092968e-09
9.126254968e-09
8.882890477e-09
8.595939702e-09
8.260299907e-09
7.871066846e-09
7.423865873e-09
6.915281591e-09
6.343379088e-09
5.708297579e-09
5.012868755e-09
4.263166211e-09
3.468864168e-09
2.643262686e-09
1.031092567e-08
1.031071173e-08
1.031018924e-08
1.030939239e-08
1.030839448e-08
1.030726033e-08
1.030606325e-08
1.030490478e-08
1.030387768e-08
1.030307186e-08
1.030262423e-08
1.030259554e-08
1.030307301e-08
1.030412962e-08
1.030582592e-08
1.030820044e-08
1.031125826e-08
1.031496429e-08
1.03192382e-08
1.032394485e-08
1.032888327e-08
1.03337744e-08
1.033824656e-08
1.03418191e-08
1.034388326e-08
1.034367961e-08
1.034027177e-08
1.033251672e-08
1.031903098e-08
1.029815189e-08
1.026789384e-08
1.02259009e-08
1.016939711e-08
1.009513555e-08
9.99934823e-09
9.877702622e-09
9.725272736e-09
9.536533184e-09
9.305389287e-09
9.025262975e-09
8.689255562e-09
8.290409588e-09
7.822099656e-09
7.278580576e-09
6.655703385e-09
5.951793979e-09
5.168657146e-09
4.312592337e-09
3.39520844e-09
2.433708741e-09
1.031995787e-08
1.032008867e-08
1.032041796e-08
1.032098612e-08
1.032182422e-08
1.03229835e-08
1.032452169e-08
1.032659048e-08
1.032923122e-08
1.033252611e-08
1.033683114e-08
1.034199671e-08
1.03481702e-08
1.035546036e-08
1.036395408e-08
1.037372198e-08
1.038480699e-08
1.039721905e-08
1.04109284e-08
1.042585451e-08
1.044185746e-08
1.045872507e-08
1.047615769e-08
1.049375035e-08
1.051097101e-08
1.05271352e-08
1.054137636e-08
1.055261093e-08
1.055949748e-08
1.056038831e-08
1.055327285e-08
1.053571342e-08
1.050477443e-08
1.045694532e-08
1.038805719e-08
1.029319773e-08
1.01666343e-08
1.000175605e-08
9.79104771e-09
9.526118777e-09
9.19782346e-09
8.796510371e-09
8.312449972e-09
7.736496956e-09
7.061031168e-09
6.281199551e-09
5.396449967e-09
4.412286981e-09
3.342030949e-09
2.20807285e-09
1.032870429e-08
1.032916264e-08
1.033029879e-08
1.033215785e-08
1.033472214e-08
1.033806889e-08
1.034228679e-08
1.03474275e-08
1.035365571e-08
1.036112116e-08
1.036970526e-08
1.03797883e-08
1.039146401e-08
1.040483543e-08
1.042000686e-08
1.043707946e-08
1.045613879e-08
1.047725219e-08
1.050045413e-08
1.052573447e-08
1.05530325e-08
1.058222224e-08
1.061309925e-08
1.064536264e-08
1.067859114e-08
1.071221568e-08
1.074548728e-08
1.077743792e-08
1.080683283e-08
1.083211287e-08
1.0851326e-08
1.086204609e-08
1.086127832e-08
1.084535043e-08
1.080978908e-08
1.074918285e-08
1.065703911e-08
1.052564609e-08
1.034595374e-08
1.010749859e-08
9.798418011e-09
9.405616091e-09
8.915160109e-09
8.313018527e-09
7.586258092e-09
6.724794644e-09
5.723697982e-09
4.58596349e-09
3.325480474e-09
1.96996536e-09
1.033647962e-08
1.033723812e-08
1.033913525e-08
1.034221619e-08
1.034644361e-08
1.035181831e-08
1.035847692e-08
1.036652618e-08
1.037609099e-08
1.038729478e-08
1.040024237e-08
1.041512919e-08
1.043210445e-08
1.045133212e-08
1.047297846e-08
1.049718797e-08
1.052408861e-08
1.055380917e-08
1.058645124e-08
1.062209162e-08
1.066076928e-08
1.070246704e-08
1.074710104e-08
1.079450168e-08
1.084439278e-08
1.089636479e-08
1.094984041e-08
1.100403178e-08
1.105788737e-08
1.111002728e-08
1.115866483e-08
1.120151028e-08
1.123565238e-08
1.125741509e-08
1.126218858e-08
1.12442317e-08
1.119644532e-08
1.111012379e-08
1.097469733e-08
1.077748746e-08
1.050352282e-08
1.013549004e-08
9.653929112e-09
9.037857156e-09
8.266075862e-09
7.319553693e-09
6.18510115e-09
4.860537519e-09
3.360106428e-09
1.719113709e-09
1.034265678e-08
1.034366444e-08
1.034627972e-08
1.035050256e-08
1.0356256e-08
1.036354762e-08
1.037249748e-08
1.038324997e-08
1.039594238e-08
1.041071413e-08
1.042772053e-08
1.044714594e-08
1.046918105e-08
1.049402479e-08
1.052187438e-08
1.055293267e-08
1.058742028e-08
1.06255307e-08
1.066743262e-08
1.07132996e-08
1.076327185e-08
1.081746191e-08
1.087593881e-08
1.093869592e-08
1.100563702e-08
1.107655457e-08
1.115109773e-08
1.122872803e-08
1.130866275e-08
1.138980671e-08
1.147066689e-08
1.154924484e-08
1.162289872e-08
1.168816858e-08
1.174056173e-08
1.177429005e-08
1.178194773e-08
1.175412581e-08
1.167896936e-08
1.154168919e-08
1.132406291e-08
1.100400195e-08
1.055529985e-08
9.947760415e-09
9.147992183e-09
8.121669954e-09
6.837752704e-09
5.278260401e-09
3.450530167e-09
1.40720625e-09
1.034667928e-08
1.034801714e-08
1.035120891e-08
1.035644664e-08
1.036358517e-08
1.037261798e-08
1.038367778e-08
1.039692532e-08
1.041251269e-08
1.043059915e-08
1.045136698e-08
1.047502319e-08
1.050179178e-08
1.053190975e-08
1.056562574e-08
1.060320275e-08
1.064490654e-08
1.06910091e-08
1.074181302e-08
1.079759159e-08
1.085858027e-08
1.09250345e-08
1.099717847e-08
1.107520251e-08
1.115923447e-08
1.124931352e-08
1.134536728e-08
1.144717171e-08
1.155429924e-08
1.166605272e-08
1.178137613e-08
1.189874157e-08
1.20160004e-08
1.213018766e-08
1.223727094e-08
1.233182702e-08
1.240662377e-08
1.24520861e-08
1.24556302e-08
1.24008509e-08
1.226656854e-08
1.202579121e-08
1.164475165e-08
1.108223202e-08
1.028953103e-08
9.211603958e-09
7.788688456e-09
5.966873127e-09
3.704028873e-09
1.050895521e-09
1.034799471e-08
1.034950462e-08
1.035329464e-08
1.035946163e-08
1.036784742e-08
1.037845017e-08
1.0391416e-08
1.040692211e-08
1.042513704e-08
1.04462394e-08
1.047043571e-08
1.049796095e-08
1.052907299e-08
1.056405004e-08
1.060319117e-08
1.064681577e-08
1.069526143e-08
1.074888752e-08
1.080806132e-08
1.087316098e-08
1.094461221e-08
1.102285009e-08
1.110820433e-08
1.120107753e-08
1.130183622e-08
1.141081291e-08
1.152827463e-08
1.165437453e-08
1.178911964e-08
1.193231796e-08
1.208349092e-08
1.224177047e-08
1.240574796e-08
1.257327429e-08
1.274119528e-08
1.290498786e-08
1.305826811e-08
1.319213136e-08
1.329426347e-08
1.334774759e-08
1.332949218e-08
1.320821258e-08
1.29421074e-08
1.247634862e-08
1.174206874e-08
1.065617616e-08
9.127432069e-09
7.063459405e-09
4.348287744e-09
9.712825919e-10
1.034602122e-08
1.034774559e-08
1.035204992e-08
1.035903374e-08
1.03685214e-08
1.038050859e-08
1.039515593e-08
1.041265812e-08
1.043320015e-08
1.045697943e-08
1.048422576e-08
1.051520238e-08
1.055020112e-08
1.05895411e-08
1.063357005e-08
1.068266512e-08
1.073723365e-08
1.079771338e-08
1.086457191e-08
1.093831563e-08
1.101948099e-08
1.110858712e-08
1.120627494e-08
1.131318854e-08
1.142986886e-08
1.155695801e-08
1.169509485e-08
1.18448606e-08
1.200677028e-08
1.218123259e-08
1.23684719e-08
1.25684545e-08
1.278074809e-08
1.300434195e-08
1.323740851e-08
1.347693522e-08
1.371820834e-08
1.395411062e-08
1.417410723e-08
1.4362754e-08
1.449752684e-08
1.454559769e-08
1.445925019e-08
1.41688553e-08
1.357573469e-08
1.253919145e-08
1.089406295e-08
8.431906682e-09
5.030793325e-09
6.801021936e-10
1.034040015e-08
1.03423044e-08
1.03470432e-08
1.035472305e-08
1.036515011e-08
1.037831832e-08
1.039440192e-08
1.041361174e-08
1.043614825e-08
1.046222633e-08
1.049209756e-08
1.052605186e-08
1.056441329e-08
1.060753945e-08
1.065582385e-08
1.070969843e-08
1.076963598e-08
1.083615287e-08
1.090981236e-08
1.099122652e-08
1.108105544e-08
1.118001643e-08
1.128889234e-08
1.140845818e-08
1.153967194e-08
1.168348718e-08
1.184087245e-08
1.20128511e-08
1.220048415e-08
1.240479813e-08
1.262685089e-08
1.286758172e-08
1.312771381e-08
1.34076492e-08
1.370728712e-08
1.402570338e-08
1.436066466e-08
1.470803548e-08
1.506085213e-08
1.540782862e-08
1.573106866e-08
1.600237376e-08
1.617724216e-08
1.618379457e-08
1.590569827e-08
1.513862377e-08
1.356485651e-08
1.053367692e-08
5.523644192e-09
-2.613852216e-09
1.033076516e-08
1.033281342e-08
1.033790463e-08
1.034615017e-08
1.035734133e-08
1.03714714e-08
1.038872628e-08
1.040933071e-08
1.043349866e-08
1.046146037e-08
1.049348669e-08
1.052989144e-08
1.057102742e-08
1.061728653e-08
1.066910325e-08
1.072695887e-08
1.079138575e-08
1.086297169e-08
1.094236456e-08
1.103027652e-08
1.11274903e-08
1.123486597e-08
1.135334657e-08
1.148397158e-08
1.162789563e-08
1.17863367e-08
1.196066085e-08
1.21523983e-08
1.236320793e-08
1.259465728e-08
1.284866992e-08
1.312720124e-08
1.343216133e-08
1.376556859e-08
1.412933421e-08
1.452504636e-08
1.495346105e-08
1.541433126e-08
1.590571921e-08
1.642281599e-08
1.695621372e-08
1.748910014e-08
1.799251968e-08
1.841661957e-08
1.867526809e-08
1.860360335e-08
1.78956649e-08
1.572106608e-08
1.077012275e-08
-4.033168549e-09
1.031681822e-08
1.031897445e-08
1.032433174e-08
1.033300494e-08
1.034477424e-08
1.035963301e-08
1.037777646e-08
1.039944025e-08
1.04248491e-08
1.045424584e-08
1.048791732e-08
1.052619717e-08
1.056946205e-08
1.061813233e-08
1.067267682e-08
1.073361853e-08
1.08015402e-08
1.087708983e-08
1.096098685e-08
1.105402957e-08
1.11571046e-08
1.127119754e-08
1.139740609e-08
1.153695353e-08
1.169120129e-08
1.186167266e-08
1.205006571e-08
1.225825332e-08
1.24882801e-08
1.274266722e-08
1.302400036e-08
1.333518506e-08