/*--------------------------------*- C++ -*----------------------------------*\
| =========                 |                                                 |
| \\      /  F ield         | foam-extend: Open Source CFD                    |
|  \\    /   O peration     | Version:     4.1                                |
|   \\  /    A nd           | Web:         http://www.foam-extend.org         |
|    \\/     M anipulation  |                                                 |
\*---------------------------------------------------------------------------*/
FoamFile
{
    version     2.0;
    format      ascii;
    class       surfaceScalarField;
    location    "150000";
    object      phi;
}
// * * * * * * * * * * * * * * * * * * * * * * * * * * * * * * * * * * * * * //

dimensions      [0 3 -1 0 0 0 0];

internalField   nonuniform List<scalar> 
31542
(
1.06248534e-07
3.081466047e-09
1.006012691e-07
5.647264471e-09
9.407323502e-08
6.528033746e-09
8.725656144e-08
6.816673396e-09
8.043283896e-08
6.82372239e-09
7.386198146e-08
6.570857466e-09
6.771885056e-08
6.143130848e-09
6.209944918e-08
5.619401257e-09
5.705026127e-08
5.049187693e-09
5.258271154e-08
4.467549434e-09
4.868336211e-08
3.899349069e-09
4.532033517e-08
3.363026575e-09
4.244947299e-08
2.87086181e-09
4.002021544e-08
2.429257186e-09
3.797999207e-08
2.040223002e-09
3.627720373e-08
1.70278796e-09
3.486319629e-08
1.414007046e-09
3.369347872e-08
1.169717147e-09
3.27283489e-08
9.651293897e-10
3.193308509e-08
7.952633552e-10
3.127784293e-08
6.552416795e-10
3.073736192e-08
5.40480511e-10
3.029055715e-08
4.468042396e-10
2.992005049e-08
3.705060933e-10
2.961165818e-08
3.08391734e-10
2.935390744e-08
2.577501775e-10
2.91375906e-08
2.163163399e-10
2.895535843e-08
1.82231795e-10
2.880135876e-08
1.539994306e-10
2.867092356e-08
1.304350981e-10
2.856030252e-08
1.106210152e-10
2.846643692e-08
9.386556719e-11
2.8386763e-08
7.967381857e-11
2.831917546e-08
6.75872999e-11
2.826185623e-08
5.731887884e-11
2.821313498e-08
4.872083538e-11
2.817144453e-08
4.169002867e-11
2.813527774e-08
3.616636359e-11
2.810315756e-08
3.211972593e-11
2.807362086e-08
2.953611267e-11
2.804522062e-08
2.839947784e-11
2.801656424e-08
2.865543465e-11
2.798625403e-08
3.030917953e-11
2.795277468e-08
3.347838459e-11
2.791465856e-08
3.811536539e-11
2.787046971e-08
4.418832228e-11
2.781881079e-08
5.1658529e-11
2.775833015e-08
6.048026602e-11
2.768772916e-08
7.060059657e-11
8.195538146e-11
2.760577345e-08
1.113835304e-07
1.027935119e-09
1.139934982e-07
3.03729621e-09
1.160768816e-07
4.444649996e-09
1.174421311e-07
5.451423954e-09
1.180463337e-07
6.219519915e-09
1.178834446e-07
6.733746826e-09
1.170460926e-07
6.980483224e-09
1.156620991e-07
7.003395221e-09
1.13858015e-07
6.853272317e-09
1.117524198e-07
6.573145107e-09
1.094512044e-07
6.200565055e-09
1.070443797e-07
5.769851631e-09
1.046048472e-07
5.310394676e-09
1.021895675e-07
4.844537236e-09
9.98410768e-08
4.388713988e-09
9.758953525e-08
3.954329891e-09
9.545486785e-08
3.548674954e-09
9.344883537e-08
3.175750243e-09
9.157692977e-08
2.837035688e-09
8.984000449e-08
2.532189337e-09
8.8235607e-08
2.259639813e-09
8.675902757e-08
2.017060479e-09
8.54041155e-08
1.801716728e-09
8.416394174e-08
1.610680176e-09
8.30311681e-08
1.441165667e-09
8.199836008e-08
1.290558548e-09
8.105819578e-08
1.156481128e-09
8.020359918e-08
1.036829103e-09
7.942782009e-08
9.297794584e-10
7.872447397e-08
8.337823442e-10
7.808755362e-08
7.475425524e-10
7.751142648e-08
6.699938278e-10
7.699083482e-08
6.00266412e-10
7.652077258e-08
5.376502568e-10
7.609649546e-08
4.815965409e-10
7.571352639e-08
4.316903275e-10
7.536760575e-08
3.876110257e-10
7.505466142e-08
3.491109507e-10
7.477078193e-08
3.159993336e-10
7.451219103e-08
2.881269781e-10
7.427521679e-08
2.653735791e-10
7.405622806e-08
2.476440538e-10
7.385166197e-08
2.348753837e-10
7.365812149e-08
2.270193294e-10
7.3472245e-08
2.239926912e-10
7.329073001e-08
2.257044789e-10
7.311033242e-08
2.320575178e-10
7.292787129e-08
2.429428874e-10
7.274023722e-08
2.582360801e-10
2.777927269e-10
7.25444013e-08
1.096475914e-07
7.103434695e-10
1.107351682e-07
1.949719369e-09
1.121981224e-07
2.981695914e-09
1.138569409e-07
3.792605514e-09
1.156217382e-07
4.454722811e-09
1.173633383e-07
4.992146772e-09
1.189546731e-07
5.389148293e-09
1.203134943e-07
5.644573831e-09
1.213937146e-07
5.773051659e-09
1.221758078e-07
5.791051367e-09
1.226618459e-07
5.714526482e-09
1.228708433e-07
5.560853667e-09
1.228329295e-07
5.348307867e-09
1.225833592e-07
5.094106975e-09
1.221587091e-07
4.813363583e-09
1.215943179e-07
4.518720701e-09
1.209227264e-07
4.220265911e-09
1.2017282e-07
3.92565618e-09
1.193695029e-07
3.640352313e-09
1.185337363e-07
3.367955346e-09
1.176827976e-07
3.110577874e-09
1.168306607e-07
2.869196782e-09
1.15988415e-07
2.643961783e-09
1.151646358e-07
2.434458684e-09
1.143658568e-07
2.239944083e-09
1.13596924e-07
2.059490779e-09
1.128613062e-07
1.892098441e-09
1.121613581e-07
1.736776887e-09
1.114985359e-07
1.592601467e-09
1.108735725e-07
1.458745627e-09
1.102866183e-07
1.334496669e-09
1.097373524e-07
1.219259507e-09
1.092250662e-07
1.112552364e-09
1.087487194e-07
1.013996744e-09
1.08307007e-07
9.233085607e-10
1.078984085e-07
8.402883894e-10
1.075212135e-07
7.648056384e-10
1.071735416e-07
6.967823365e-10
1.0685336e-07
6.361803577e-10
1.065584958e-07
5.829904811e-10
1.062866458e-07
5.372227684e-10
1.060353908e-07
4.988982429e-10
1.058022195e-07
4.680459779e-10
1.05584544e-07
4.446943007e-10
1.053796831e-07
4.288529224e-10
1.051848747e-07
4.20512292e-10
1.04997294e-07
4.19637717e-10
1.048140665e-07
4.261700619e-10
1.046322791e-07
4.400233869e-10
4.610790856e-10
1.044489924e-07
1.095659226e-07
4.744208431e-10
1.100927256e-07
1.422916734e-09
1.108124779e-07
2.261944122e-09
1.116525324e-07
2.952551498e-09
1.126007067e-07
3.506549047e-09
1.13647508e-07
3.945346045e-09
1.14760511e-07
4.276145652e-09
1.159005192e-07
4.504565758e-09
1.170310769e-07
4.642493894e-09
1.181188042e-07
4.703323842e-09
1.191346929e-07
4.698637451e-09
1.200565906e-07
4.638955699e-09
1.208702715e-07
4.53462668e-09
1.215687927e-07
4.395585709e-09
1.221513544e-07
4.230801874e-09
1.226219945e-07
4.048080751e-09
1.229882189e-07
3.8540417e-09
1.232597422e-07
3.654132918e-09
1.234474241e-07
3.452670469e-09
1.235624509e-07
3.252928392e-09
1.236157559e-07
3.057272725e-09
1.236176382e-07
2.86731435e-09
1.235775376e-07
2.684062206e-09
1.235039295e-07
2.508066591e-09
1.23404324e-07
2.339549458e-09
1.232853002e-07
2.178514415e-09
1.23152567e-07
2.024831658e-09
1.230110394e-07
1.878304543e-09
1.228649212e-07
1.738719829e-09
1.22717784e-07
1.60588307e-09
1.225726397e-07
1.479641205e-09
1.224320038e-07
1.359895626e-09
1.222979492e-07
1.246607156e-09
1.221721509e-07
1.139795091e-09
1.220559251e-07
1.039534472e-09
1.21950262e-07
9.459515818e-10
1.218558522e-07
8.59215596e-10
1.217731064e-07
7.795282704e-10
1.217021731e-07
7.071139673e-10
1.21642953e-07
6.42210798e-10
1.215951128e-07
5.850631952e-10
1.215581003e-07
5.359110014e-10
1.215311532e-07
4.949932566e-10
1.215133146e-07
4.625330776e-10
1.215034428e-07
4.387248445e-10
1.215002179e-07
4.237373215e-10
1.215021537e-07
4.177022184e-10
1.215076129e-07
4.207113501e-10
1.215148208e-07
4.328161109e-10
4.54022637e-10
1.215218779e-07
1.094413315e-07
3.630895203e-10
1.097667097e-07
1.097539129e-09
1.102563002e-07
1.772354064e-09
1.108566721e-07
2.352179958e-09
1.115306422e-07
2.832579306e-09
1.122550512e-07
3.220937251e-09
1.130089867e-07
3.522210118e-09
1.137737847e-07
3.739767502e-09
1.145358549e-07
3.880423346e-09
1.152852286e-07
3.953949538e-09
1.160134411e-07
3.970424394e-09
1.167131211e-07
3.939275112e-09
1.173783396e-07
3.869407765e-09
1.180047913e-07
3.769133732e-09
1.185897324e-07
3.645860577e-09
1.191318786e-07
3.505934426e-09
1.196312617e-07
3.354658362e-09
1.200890285e-07
3.196365845e-09
1.205071983e-07
3.03450031e-09
1.208884183e-07
2.871708019e-09
1.212357418e-07
2.70994886e-09
1.215524409e-07
2.55061488e-09
1.218418576e-07
2.394645235e-09
1.221072923e-07
2.24263157e-09
1.223519287e-07
2.094912743e-09
1.225787862e-07
1.951656587e-09
1.227906922e-07
1.812925237e-09
1.2299027e-07
1.678726503e-09
1.231799368e-07
1.549052674e-09
1.233619093e-07
1.423910399e-09
1.235382098e-07
1.303340589e-09
1.237106747e-07
1.18743058e-09
1.238809617e-07
1.076320092e-09
1.240505544e-07
9.70202363e-10
1.242207662e-07
8.693225378e-10
1.24392744e-07
7.739736617e-10
1.245674707e-07
6.844888338e-10
1.247457654e-07
6.012336158e-10
1.24928282e-07
5.245975345e-10
1.251155092e-07
4.549838526e-10
1.253077709e-07
3.928016174e-10
1.255052265e-07
3.38455479e-10
1.257078375e-07
2.923820503e-10
1.259154424e-07
2.549277061e-10
1.26127699e-07
2.264678562e-10
1.263441033e-07
2.073328806e-10
1.265639992e-07
1.978062305e-10
1.267865826e-07
1.981279143e-10
1.270109084e-07
2.084901368e-10
2.290322396e-10
1.272358985e-07
1.094059598e-07
2.87130172e-10
1.096387249e-07
8.647746823e-10
1.100030863e-07
1.407993263e-09
1.104634688e-07
1.891797922e-09
1.109899199e-07
2.306128528e-09
1.115603421e-07
2.650515296e-09
1.121561547e-07
2.926397336e-09
1.127605894e-07
3.135332514e-09
1.133601595e-07
3.280852736e-09
1.139452215e-07
3.368887064e-09
1.145091812e-07
3.406464159e-09
1.150477539e-07
3.400702187e-09
1.155586012e-07
3.358560353e-09
1.160409984e-07
3.286736493e-09
1.164954168e-07
3.191442216e-09
1.169231512e-07
3.078200062e-09
1.173260469e-07
2.951762483e-09
1.177062973e-07
2.816115265e-09
1.180662817e-07
2.674515588e-09
1.184084392e-07
2.529550361e-09
1.187351739e-07
2.38321394e-09
1.190487908e-07
2.236997893e-09
1.193514531e-07
2.091982908e-09
1.196451585e-07
1.948926109e-09
1.199317305e-07
1.808340628e-09
1.202128214e-07
1.670565476e-09
1.204899222e-07
1.5358242e-09
1.207643758e-07
1.404272602e-09
1.210373916e-07
1.276036682e-09
1.213100597e-07
1.151242088e-09
1.215833645e-07
1.03003561e-09
1.218581956e-07
9.125995082e-10
1.22135355e-07
7.991606947e-10
1.224155628e-07
6.899945395e-10
1.226994608e-07
5.854245695e-10
1.229876122e-07
4.858222614e-10
1.232804995e-07
3.916016732e-10
1.235785207e-07
3.032127661e-10
1.238819869e-07
2.211318078e-10
1.241911133e-07
1.458579394e-10
1.245060175e-07
7.78977963e-11
1.248267741e-07
1.769900386e-11
1.251531157e-07
-3.395967021e-11
1.254849314e-07
-7.688809345e-11
1.25821931e-07
-1.105318231e-10
1.261637369e-07
-1.34473041e-10
1.265098652e-07
-1.483219555e-10
1.268597266e-07
-1.517334724e-10
1.272126342e-07
-1.444175725e-10
-1.261428469e-10
1.27567809e-07
1.093871228e-07
2.300077221e-10
1.095586069e-07
6.932909227e-10
1.098314415e-07
1.135158948e-09
1.101852413e-07
1.537998393e-09
1.105999555e-07
1.891414393e-09
1.110586989e-07
2.191771853e-09
1.115466244e-07
2.438471526e-09
1.120499305e-07
2.632025932e-09
1.125564899e-07
2.774292824e-09
1.13056612e-07
2.868764486e-09
1.1354304e-07
2.920035735e-09
1.140106187e-07
2.933123379e-09
1.14456048e-07
2.913131009e-09
1.148776768e-07
2.865107756e-09
1.152752283e-07
2.793890635e-09
1.1564949e-07
2.703938293e-09
1.160020263e-07
2.599226003e-09
1.163349335e-07
2.483207807e-09
1.166506318e-07
2.358817012e-09
1.16951694e-07
2.228487947e-09
1.172407126e-07
2.094195276e-09
1.175202033e-07
1.957507229e-09
1.1779254e-07
1.819646249e-09
1.180599151e-07
1.681551002e-09
1.183243197e-07
1.54393597e-09
1.185875386e-07
1.407346334e-09
1.188511559e-07
1.272206653e-09
1.191165656e-07
1.138862534e-09
1.193849867e-07
1.007615233e-09
1.19657479e-07
8.787495327e-10
1.199349587e-07
7.525557792e-10
1.202182129e-07
6.293453483e-10
1.205079121e-07
5.094615236e-10
1.208046184e-07
3.932881669e-10
1.211087906e-07
2.812522954e-10
1.214207971e-07
1.738156097e-10
1.217409234e-07
7.147540983e-11
1.220693628e-07
-2.522638504e-11
1.224062127e-07
-1.157178387e-10
1.227514742e-07
-1.994033165e-10
1.231050523e-07
-2.756802009e-10
1.234666998e-07
-3.439486495e-10
1.238363095e-07
-4.035695416e-10
1.242134158e-07
-4.539945419e-10
1.245975296e-07
-4.946457163e-10
1.249880494e-07
-5.249928958e-10
1.253842858e-07
-5.44558604e-10
1.257854697e-07
-5.529177449e-10
1.261907569e-07
-5.497052346e-10
-5.346232113e-10
1.265992371e-07
1.09373324e-07
1.866840375e-10
1.095036294e-07
5.629856258e-10
1.097138086e-07
9.24979756e-10
1.099917968e-07
1.260010253e-09
1.10323833e-07
1.559377964e-09
1.106968921e-07
1.818712461e-09
1.11099113e-07
2.03625029e-09
1.115195935e-07
2.211544892e-09
1.119486032e-07
2.345282785e-09
1.123779902e-07
2.439377195e-09
1.128012999e-07
2.496725947e-09
1.132136408e-07
2.520782471e-09
1.136115302e-07
2.515241775e-09
1.139927694e-07
2.483868591e-09
1.14356296e-07
2.430363962e-09
1.147019977e-07
2.358236472e-09
1.150305182e-07
2.270705228e-09
1.153430778e-07
2.170648098e-09
1.156413111e-07
2.060583509e-09
1.159271264e-07
1.942672632e-09
1.16202585e-07
1.818736702e-09
1.164698055e-07
1.690286809e-09
1.167308898e-07
1.558562187e-09
1.169878684e-07
1.424572479e-09
1.172426638e-07
1.289140597e-09
1.174970661e-07
1.15294393e-09
1.1775272e-07
1.016552476e-09
1.180111196e-07
8.804627021e-10
1.182736078e-07
7.451267551e-10
1.185413803e-07
6.109768729e-10
1.188154912e-07
4.784449757e-10
1.190968572e-07
3.479793644e-10
1.193862612e-07
2.200576011e-10
1.19684378e-07
9.517138845e-11
1.199917552e-07
-2.612501166e-11
1.203088196e-07
-1.432489336e-10
1.206358685e-07
-2.555735507e-10
1.209730783e-07
-3.624361129e-10
1.21320516e-07
-4.631555302e-10
1.216781402e-07
-5.570275468e-10
1.220457904e-07
-6.433305411e-10
1.224231841e-07
-7.213424175e-10
1.228099556e-07
-7.903411371e-10
1.232055855e-07
-8.496245049e-10
1.236094636e-07
-8.985239607e-10
1.24020876e-07
-9.364054483e-10
1.244390063e-07
-9.626890287e-10
1.248629465e-07
-9.768582408e-10
1.252917086e-07
-9.784677633e-10
-9.67151874e-10
1.25724237e-07
1.09363999e-07
1.526850847e-10
1.0946636e-07
4.606244553e-10
1.096326508e-07
7.586888211e-10
1.098550696e-07
1.03759119e-09
1.10124059e-07
1.290388275e-09
1.104299187e-07
1.51285225e-09
1.107634972e-07
1.702671335e-09
1.111162941e-07
1.858747555e-09
1.114805848e-07
1.980991855e-09
1.118496615e-07
2.070300351e-09
1.122179885e-07
2.128399036e-09
1.125811985e-07
2.157572653e-09
1.129360181e-07
2.160422163e-09
1.132801848e-07
2.139701887e-09
1.136123487e-07
2.098199916e-09
1.139319518e-07
2.038633233e-09
1.142390938e-07
1.963562961e-09
1.145344024e-07
1.875339308e-09
1.148189125e-07
1.776073297e-09
1.150939578e-07
1.667627273e-09
1.153610755e-07
1.551619072e-09
1.156219252e-07
1.429437175e-09
1.158782235e-07
1.302264089e-09
1.161316914e-07
1.171104738e-09
1.163840149e-07
1.036817066e-09
1.166368159e-07
9.001428182e-10
1.16891631e-07
7.61737267e-10
1.171498968e-07
6.221966172e-10
1.17412943e-07
4.820804482e-10
1.176819848e-07
3.419350871e-10
1.179581177e-07
2.023121459e-10
1.182423357e-07
6.376140608e-11
1.185354865e-07
-7.309319057e-11
1.188383037e-07
-2.076457975e-10
1.191513899e-07
-3.392113768e-10
1.194752246e-07
-4.670838108e-10
1.198101693e-07
-5.905185327e-10
1.201564609e-07
-7.087279933e-10
1.205141984e-07
-8.208934167e-10
1.208833445e-07
-9.261739848e-10
1.212637277e-07
-1.023713946e-09
1.216550381e-07
-1.112652888e-09
1.220568319e-07
-1.192134995e-09
1.224685317e-07
-1.261324365e-09
1.228894288e-07
-1.319421491e-09
1.233186941e-07
-1.365671205e-09
1.237553839e-07
-1.399378919e-09
1.241984504e-07
-1.419924482e-09
1.246467552e-07
-1.426772458e-09
-1.419481353e-09
1.250990845e-07
1.093573294e-07
1.253555775e-10
1.094394929e-07
3.784606544e-10
1.095734981e-07
6.246832554e-10
1.097540771e-07
8.570118358e-10
1.099745625e-07
1.069902423e-09
1.102278429e-07
1.25957133e-09
1.105069201e-07
1.423593714e-09
1.108051284e-07
1.560539e-09
1.111162882e-07
1.669832044e-09
1.114348929e-07
1.751695695e-09
1.117562568e-07
1.807035347e-09
1.120765647e-07
1.837264765e-09
1.12392853e-07
1.84413388e-09
1.127029611e-07
1.829593686e-09
1.130054691e-07
1.795691732e-09
1.132996178e-07
1.744484301e-09
1.135852162e-07
1.677964344e-09
1.138625458e-07
1.598009548e-09
1.141322686e-07
1.506350332e-09
1.143953422e-07
1.404553631e-09
1.146529425e-07
1.29401869e-09
1.149063972e-07
1.175982541e-09
1.151571283e-07
1.051533051e-09
1.154066058e-07
9.216273106e-10
1.156563098e-07
7.871130143e-10
1.15907701e-07
6.487514461e-10
1.161621978e-07
5.072403777e-10
1.164211542e-07
3.632401332e-10
1.166858501e-07
2.173845458e-10
1.169574923e-07
7.029300175e-11
1.172371783e-07
-7.737379611e-11
1.175259011e-07
-2.24961349e-10
1.178245623e-07
-3.717543976e-10
1.181339315e-07
-5.170150794e-10
1.184546746e-07
-6.599546205e-10
1.187873249e-07
-7.997344438e-10
1.191322785e-07
-9.354725028e-10
1.194897949e-07
-1.066244884e-09
1.198599913e-07
-1.191090276e-09
1.202428354e-07
-1.309018499e-09
1.206381413e-07
-1.419020019e-09
1.210455658e-07
-1.520077595e-09
1.214646107e-07
-1.611179963e-09
1.218946238e-07
-1.691337521e-09
1.223348012e-07
-1.759599038e-09
1.227841967e-07
-1.815067037e-09
1.232417322e-07
-1.856914625e-09
1.237062097e-07
-1.884401789e-09
1.241763269e-07
-1.896889077e-09
-1.893848976e-09
1.24650695e-07
1.093523343e-07
1.030210295e-10
1.094194118e-07
3.11382888e-10
1.095291222e-07
5.149725041e-10
1.096777804e-07
7.08353231e-10
1.098606245e-07
8.870577914e-10
1.100723905e-07
1.047804932e-09
1.103077171e-07
1.188266866e-09
1.105613788e-07
1.306877259e-09
1.108284499e-07
1.402761035e-09
1.11104458e-07
1.475687748e-09
1.113855048e-07
1.525988672e-09
1.116683297e-07
1.554439927e-09
1.119503217e-07
1.562141813e-09
1.122295018e-07
1.550413438e-09
1.12504488e-07
1.520705418e-09
1.127744453e-07
1.474526797e-09
1.130390244e-07
1.41338498e-09
1.132982938e-07
1.338739997e-09
1.135526708e-07
1.251973087e-09
1.138028565e-07
1.154367722e-09
1.140497743e-07
1.047100784e-09
1.142945146e-07
9.312421438e-10
1.145382866e-07
8.077609329e-10
1.147823766e-07
6.775372206e-10
1.150281129e-07
5.413764769e-10
1.152768384e-07
4.000258405e-10
1.155298895e-07
2.54189184e-10
1.15788554e-07
1.045755903e-10
1.160540909e-07
-4.81523832e-11
1.163276813e-07
-2.032975086e-10
1.166104458e-07
-3.601382968e-10
1.169034048e-07
-5.179204944e-10
1.172074956e-07
-6.758451761e-10
1.175235401e-07
-8.330596246e-10
1.178522423e-07
-9.88656934e-10
1.181941803e-07
-1.141672755e-09
1.185497952e-07
-1.291087794e-09
1.189193806e-07
-1.435830826e-09
1.193030736e-07
-1.574783688e-09
1.197008455e-07
-1.706790514e-09
1.20112495e-07
-1.830669532e-09
1.205376441e-07
-1.945226804e-09
1.209757362e-07
-2.049272336e-09
1.214260369e-07
-2.141638436e-09
1.218876376e-07
-2.22119958e-09
1.223594633e-07
-2.286892348e-09
1.228402841e-07
-2.337735344e-09
1.233287311e-07
-2.372848785e-09
1.238233145e-07
-2.391472289e-09
-2.392979772e-09
1.243224459e-07
1.093485075e-07
8.451334995e-11
1.094040406e-07
2.558495737e-10
1.094950492e-07
4.239636545e-10
1.09618861e-07
5.84541087e-10
1.097719885e-07
7.339299618e-10
1.099504916e-07
8.693015692e-10
1.101502606e-07
9.884978348e-10
1.103672104e-07
1.089927566e-09
1.105974286e-07
1.172543017e-09
1.108373019e-07
1.235814653e-09
1.110836173e-07
1.279673398e-09
1.113336267e-07
1.304430609e-09
1.115850753e-07
1.31069314e-09
1.118362044e-07
1.29928421e-09
1.12085736e-07
1.27117371e-09
1.123328439e-07
1.227418735e-09
1.125771143e-07
1.169114419e-09
1.128184988e-07
1.097355225e-09
1.130572652e-07
1.013206518e-09
1.132939471e-07
9.176855773e-10
1.135292967e-07
8.11750899e-10
1.137642399e-07
6.962985916e-10
1.139998362e-07
5.721643491e-10
1.142372421e-07
4.401308921e-10
1.144776779e-07
3.009403143e-10
1.147223956e-07
1.55307973e-10
1.149727398e-07
3.844766005e-12
1.152298614e-07
-1.525461408e-10
1.154950693e-07
-3.133604572e-10
1.157695536e-07
-4.777820436e-10
1.160544576e-07
-6.450425454e-10
1.16350851e-07
-8.143140877e-10
1.166597155e-07
-9.847096687e-10
1.169819327e-07
-1.155276774e-09
1.173182699e-07
-1.324994149e-09
1.176693661e-07
-1.492769113e-09
1.180357167e-07
-1.657438532e-09
1.184176587e-07
-1.817773024e-09
1.188153585e-07
-1.972483627e-09
1.192287998e-07
-2.120231798e-09
1.196577732e-07
-2.259642766e-09
1.201018683e-07
-2.389321791e-09
1.205604692e-07
-2.507873376e-09
1.210327539e-07
-2.613923326e-09
1.215176972e-07
-2.706142895e-09
1.220140791e-07
-2.783273755e-09
1.225204971e-07
-2.844152857e-09
1.230353852e-07
-2.887736556e-09
1.23557036e-07
-2.913122976e-09
-2.919571322e-09
1.240836278e-07
1.093455093e-07
6.900395586e-11
1.093919994e-07
2.093594726e-10
1.094682909e-07
3.476720668e-10
1.095723896e-07
4.804421849e-10
1.097016879e-07
6.046314746e-10
1.098532022e-07
7.177872698e-10
1.100237665e-07
8.179336114e-10
1.102101818e-07
9.035124409e-10
1.104093393e-07
9.733857401e-10
1.106183262e-07
1.026827938e-09
1.108345116e-07
1.063488094e-09
1.110556066e-07
1.083335654e-09
1.112796987e-07
1.086601093e-09
1.115052652e-07
1.073717708e-09
1.117311712e-07
1.045267664e-09
1.119566551e-07
1.001934725e-09
1.121813047e-07
9.444647502e-10
1.124050258e-07
8.736339073e-10
1.126280078e-07
7.902242937e-10
1.128506865e-07
6.950066137e-10
1.130737073e-07
5.887296543e-10
1.132978894e-07
4.72115922e-10
1.135241944e-07
3.458587535e-10
1.137536963e-07
2.106282807e-10
1.139875599e-07
6.707629352e-11
1.142269949e-07
-8.412746749e-11
1.144731869e-07
-2.423475694e-10
1.147275068e-07
-4.068664421e-10
1.149911483e-07
-5.770022829e-10
1.152653535e-07
-7.519876931e-10
1.155513132e-07
-9.310025583e-10
1.158501593e-07
-1.113160317e-09
1.161629479e-07
-1.297498203e-09
1.164906413e-07
-1.482970087e-09
1.168340892e-07
-1.668441833e-09
1.171940097e-07
-1.852689453e-09
1.175709715e-07
-2.03440004e-09
1.179653747e-07
-2.212175896e-09
1.183774332e-07
-2.384541878e-09
1.18807158e-07
-2.549956498e-09
1.192543425e-07
-2.70682721e-09
1.197185505e-07
-2.853529724e-09
1.201991084e-07
-2.988431081e-09
1.206951014e-07
-3.109916237e-09
1.212053759e-07
-3.216417501e-09
1.217285478e-07
-3.306445662e-09
1.222630166e-07
-3.378621464e-09
1.228069866e-07
-3.431706249e-09
1.233584946e-07
-3.464630512e-09
-3.476518767e-09
1.239154423e-07
1.093431105e-07
5.589342472e-11
1.093823688e-07
1.70101376e-10
1.094468502e-07
2.831906897e-10
1.095350298e-07
3.922625743e-10
1.096449197e-07
4.947414923e-10
1.097742301e-07
5.884769573e-10
1.09920503e-07
6.716608674e-10
1.100812238e-07
7.427918028e-10
1.102539203e-07
8.006894135e-10
1.104362499e-07
8.444985286e-10
1.106260711e-07
8.736670682e-10
1.108214969e-07
8.879099577e-10
1.110209298e-07
8.87168407e-10
1.112230801e-07
8.715674743e-10
1.114269727e-07
8.413750689e-10
1.116319422e-07
7.969652062e-10
1.118376199e-07
7.387869785e-10
1.120439145e-07
6.673391832e-10
1.122509884e-07
5.831501577e-10
1.124592317e-07
4.867629186e-10
1.12669235e-07
3.787256692e-10
1.128817552e-07
2.595949605e-10
1.130976988e-07
1.299143051e-10
1.133181105e-07
-9.784215674e-12
1.135440833e-07
-1.588971036e-10
1.137768384e-07
-3.168831548e-10
1.140176127e-07
-4.831223016e-10
1.142677097e-07
-6.569639611e-10
1.145284161e-07
-8.377092212e-10
1.148010206e-07
-1.024592621e-09
1.150867879e-07
-1.216770091e-09
1.153869381e-07
-1.413310575e-09
1.157026257e-07
-1.613185575e-09
1.160349175e-07
-1.815261573e-09
1.163847712e-07
-2.018295039e-09
1.16753012e-07
-2.220929732e-09
1.171403094e-07
-2.421696834e-09
1.175471527e-07
-2.619018671e-09
1.179738278e-07
-2.811216448e-09
1.184203939e-07
-2.996522494e-09
1.188866642e-07
-3.173097621e-09
1.193721881e-07
-3.33905376e-09
1.198762387e-07
-3.492481626e-09
1.203978054e-07
-3.631482939e-09
1.209355944e-07
-3.75420653e-09
1.214880359e-07
-3.858887191e-09
1.220532999e-07
-3.943885614e-09
1.226293211e-07
-4.007727702e-09
1.232138321e-07
-4.049141632e-09
-4.067090557e-09
1.238044041e-07
1.093411542e-07
4.473935902e-11
1.093745167e-07
1.367390005e-10
1.094293427e-07
2.283647698e-10
1.095044392e-07
3.171660981e-10
1.09598263e-07
4.009176707e-10
1.09709033e-07
4.77707062e-10
1.098348245e-07
5.458694554e-10
1.099736521e-07
6.039642775e-10
1.101235471e-07
6.507945597e-10
1.102826279e-07
6.854179065e-10
1.104491594e-07
7.071357333e-10
1.106215991e-07
7.154704278e-10
1.1079863e-07
7.101376498e-10
1.109791817e-07
6.910159026e-10
1.111624411e-07
6.58115742e-10
1.113478545e-07
6.115518396e-10
1.115351222e-07
5.515192488e-10
1.117241875e-07
4.782737811e-10
1.119152216e-07
3.921157014e-10
1.121086078e-07
2.933762159e-10
1.123049302e-07
1.824024519e-10
1.125049026e-07
5.96216798e-11
1.127094253e-07
-7.460932889e-11
1.129195052e-07
-2.19864945e-10
1.131362872e-07
-3.756797998e-10
1.133609735e-07
-5.415700271e-10
1.135948464e-07
-7.16995683e-10
1.138392399e-07
-9.013579361e-10
1.140955175e-07
-1.09398712e-09
1.143650539e-07
-1.294129221e-09
1.146492158e-07
-1.500932063e-09
1.149493391e-07
-1.713433838e-09
1.152667061e-07
-1.930552305e-09
1.156025209e-07
-2.151075822e-09
1.15957883e-07
-2.373656448e-09
1.163337595e-07
-2.596805482e-09
1.167309555e-07
-2.818892218e-09
1.171500841e-07
-3.038146746e-09
1.175915354e-07
-3.252667488e-09
1.180554471e-07
-3.460434259e-09
1.185416769e-07
-3.659327615e-09
1.190497778e-07
-3.847155007e-09
1.195789795e-07
-4.021683624e-09
1.201281758e-07
-4.180679409e-09
1.206959204e-07
-4.321951488e-09
1.212804339e-07
-4.443400943e-09
1.218796201e-07
-4.543071962e-09
1.22491095e-07
-4.619202744e-09
1.231122267e-07
-4.670273688e-09
-4.695050491e-09
1.237401861e-07
1.093395288e-07
3.521075513e-11
1.09367995e-07
1.082728898e-10
1.094147827e-07
1.815770901e-10
1.094789386e-07
2.530101568e-10
1.095592439e-07
3.206123005e-10
1.096542947e-07
3.826561406e-10
1.097625704e-07
4.375937491e-10
1.098824946e-07
4.840401274e-10
1.100124954e-07
5.207937571e-10
1.101510624e-07
5.468510755e-10
1.102967948e-07
5.614034336e-10
1.104484416e-07
5.638238261e-10
1.106049308e-07
5.536485526e-10
1.107653913e-07
5.305554926e-10
1.109291657e-07
4.943413596e-10
1.110958166e-07
4.449008404e-10
1.112651267e-07
3.82209105e-10
1.114370928e-07
3.063075076e-10
1.116119154e-07
2.17292693e-10
1.117899815e-07
1.153095097e-10
1.119719966e-07
3.865670076e-13
1.121584943e-07
-1.26876893e-10
1.123504991e-07
-2.66614947e-10
1.125490251e-07
-4.183915986e-10
1.127552273e-07
-5.818826109e-10
1.129703572e-07
-7.567003622e-10
1.131957531e-07
-9.423918677e-10
1.134328228e-07
-1.138427754e-09
1.136830246e-07
-1.344188897e-09
1.13947847e-07
-1.55895159e-09
1.142287882e-07
-1.781873143e-09
1.145273328e-07
-2.011978309e-09
1.148449271e-07
-2.248146261e-09
1.151829507e-07
-2.489098891e-09
1.15542686e-07
-2.733391126e-09
1.15925285e-07
-2.979403813e-09
1.163317333e-07
-3.225339994e-09
1.167628123e-07
-3.469225682e-09
1.172190609e-07
-3.70891629e-09
1.177007361e-07
-3.942109768e-09
1.182077757e-07
-4.166367531e-09
1.187397642e-07
-4.379144057e-09
1.192959057e-07
-4.577825478e-09
1.198750028e-07
-4.759776749e-09
1.204754475e-07
-4.922396417e-09
1.210952238e-07
-5.063177831e-09
1.217319262e-07
-5.179774817e-09
1.223827918e-07
-5.270068413e-09
1.230447489e-07
-5.332230656e-09
-5.36478181e-09
1.237144801e-07
1.093381535e-07
2.705736186e-11
1.093624792e-07
8.394715475e-11
1.094024551e-07
1.416010583e-10
1.094573037e-07
1.981614295e-10
1.09526046e-07
2.518699219e-10
1.096075606e-07
3.011414225e-10
1.09700634e-07
3.445202653e-10
1.098040064e-07
3.806676159e-10
1.099164188e-07
4.083813666e-10
1.100366578e-07
4.266120566e-10
1.101635963e-07
4.344649398e-10
1.102962266e-07
4.311934715e-10
1.104336874e-07
4.161877445e-10
1.105752838e-07
3.889590426e-10
1.10720502e-07
3.491230406e-10
1.10869018e-07
2.963846755e-10
1.110207015e-07
2.305254111e-10
1.11175616e-07
1.51392644e-10
1.113340182e-07
5.889014334e-11
1.114963555e-07
-4.702834244e-11
1.116631121e-07
-1.663705759e-10
1.118352695e-07
-2.990349453e-10
1.12013638e-07
-4.449839614e-10
1.121993025e-07
-6.040566367e-10
1.123934647e-07
-7.760450819e-10
1.125974423e-07
-9.606780692e-10
1.128126565e-07
-1.157605949e-09
1.130406159e-07
-1.366386953e-09
1.132828997e-07
-1.586472393e-09
1.135411388e-07
-1.817190507e-09
1.138169957e-07
-2.057729855e-09
1.141121403e-07
-2.307122671e-09
1.144282228e-07
-2.564228484e-09
1.147668429e-07
-2.827718714e-09
1.151295152e-07
-3.096062981e-09
1.155176296e-07
-3.367517821e-09
1.159324086e-07
-3.64011889e-09
1.163748607e-07
-3.911678131e-09
1.168457315e-07
-4.1797876e-09
1.173454529e-07
-4.441831493e-09
1.178740929e-07
-4.695007785e-09
1.184313092e-07
-4.936360762e-09
1.190163087e-07
-5.162825513e-09
1.196278162e-07
-5.371284598e-09
1.202640556e-07
-5.558635869e-09
1.209227474e-07
-5.721869686e-09
1.216011255e-07
-5.858153151e-09
1.222959744e-07
-5.964917615e-09
1.230036878e-07
-6.03994417e-09
-6.081441423e-09
1.237203475e-07
1.093369689e-07
2.008843049e-11
1.09357731e-07
6.318494007e-11
1.093918336e-07
1.074983407e-10
1.094386293e-07
1.513655028e-10
1.094973184e-07
1.931807919e-10
1.095669924e-07
2.314672677e-10
1.096466725e-07
2.6483999e-10
1.097353443e-07
2.919957022e-10
1.098319943e-07
3.117312432e-10
1.099356465e-07
3.229597213e-10
1.100453954e-07
3.247158433e-10
1.101604345e-07
3.161541435e-10
1.102800798e-07
2.965422171e-10
1.104037889e-07
2.652497329e-10
1.105311758e-07
2.21735929e-10
1.106620209e-07
1.655393e-10
1.107962775e-07
9.626847662e-11
1.10934076e-07
1.359380928e-11
1.110757203e-07
-8.275449039e-11
1.112216877e-07
-1.929960973e-10
1.113726149e-07
-3.172981016e-10
1.115293499e-07
-4.55770199e-10
1.116928474e-07
-6.08481826e-10
1.118642302e-07
-7.754396087e-10
1.120447653e-07
-9.565801998e-10
1.122358522e-07
-1.151764736e-09
1.124390116e-07
-1.36076502e-09
1.126558734e-07
-1.58324827e-09
1.128881618e-07
-1.818760482e-09
1.131376793e-07
-2.066707796e-09
1.134062862e-07
-2.326336611e-09
1.136958768e-07
-2.596713076e-09
1.140083508e-07
-2.876702322e-09
1.143455802e-07
-3.164947981e-09
1.147093701e-07
-3.4598528e-09
1.151014136e-07
-3.75956134e-09
1.155232408e-07
-4.061946093e-09
1.159761612e-07
-4.36459887e-09
1.164612029e-07
-4.66482972e-09
1.169790467e-07
-4.95967574e-09
1.175299606e-07
-5.24592187e-09
1.181137354e-07
-5.520135484e-09
1.187296263e-07
-5.778716521e-09
1.193763057e-07
-6.017964416e-09
1.200518311e-07
-6.234161515e-09
1.207536323e-07
-6.423670904e-09
1.214785246e-07
-6.583045406e-09
1.222227502e-07
-6.709143057e-09
1.229820483e-07
-6.799242271e-09
-6.851148509e-09
1.237517552e-07
1.093359306e-07
1.415770822e-11
1.093535728e-07
4.554259702e-11
1.093825254e-07
7.854566946e-11
1.094222384e-07
1.116524846e-10
1.094720463e-07
1.433728379e-10
1.095312026e-07
1.723110268e-10
1.095989077e-07
1.971347756e-10
1.09674337e-07