/*--------------------------------*- C++ -*----------------------------------*\
| =========                 |                                                 |
| \\      /  F ield         | foam-extend: Open Source CFD                    |
|  \\    /   O peration     | Version:     4.1                                |
|   \\  /    A nd           | Web:         http://www.foam-extend.org         |
|    \\/     M anipulation  |                                                 |
\*---------------------------------------------------------------------------*/
FoamFile
{
    version     2.0;
    format      ascii;
    class       volVectorField;
    location    "150000";
    object      U;
}
// * * * * * * * * * * * * * * * * * * * * * * * * * * * * * * * * * * * * * //

dimensions      [0 1 -1 0 0 0 0];

internalField   nonuniform List<vector> 
15920
(
(0.0002132401917 5.12578837e-06 0)
(0.0002058380242 1.132360995e-05 0)
(0.0001956951435 1.375077944e-05 0)
(0.0001821225633 1.424127204e-05 0)
(0.0001676591225 1.379990015e-05 0)
(0.0001539598605 1.273376889e-05 0)
(0.0001412909129 1.122736953e-05 0)
(0.0001295735636 9.50496892e-06 0)
(0.0001188848404 7.765342447e-06 0)
(0.000109348361 6.13603708e-06 0)
(0.0001009922812 4.686185883e-06 0)
(9.375740264e-05 3.448262257e-06 0)
(8.755238681e-05 2.429131552e-06 0)
(8.227915051e-05 1.61683802e-06 0)
(7.783545e-05 9.882432179e-07 0)
(7.411687201e-05 5.156825246e-07 0)
(7.102219099e-05 1.711945284e-07 0)
(6.845778773e-05 -7.115936827e-08 0)
(6.633954445e-05 -2.341128052e-07 0)
(6.459328176e-05 -3.367697669e-07 0)
(6.315467614e-05 -3.946959406e-07 0)
(6.196886537e-05 -4.202882685e-07 0)
(6.098975584e-05 -4.232449949e-07 0)
(6.017914028e-05 -4.110430702e-07 0)
(5.950569245e-05 -3.89302179e-07 0)
(5.894396687e-05 -3.621413394e-07 0)
(5.847346739e-05 -3.325066902e-07 0)
(5.807779679e-05 -3.024419604e-07 0)
(5.774389162e-05 -2.733030669e-07 0)
(5.746134935e-05 -2.459269453e-07 0)
(5.722185052e-05 -2.207630909e-07 0)
(5.701867084e-05 -1.979721968e-07 0)
(5.684623556e-05 -1.774907101e-07 0)
(5.669993184e-05 -1.59033274e-07 0)
(5.657588268e-05 -1.422646455e-07 0)
(5.647063283e-05 -1.26916523e-07 0)
(5.638097369e-05 -1.127553313e-07 0)
(5.63038454e-05 -9.954053175e-08 0)
(5.623627188e-05 -8.701637299e-08 0)
(5.617531561e-05 -7.491715698e-08 0)
(5.611806458e-05 -6.297663168e-08 0)
(5.606170464e-05 -5.09602035e-08 0)
(5.600344106e-05 -3.878022193e-08 0)
(5.594034969e-05 -2.647483392e-08 0)
(5.586945075e-05 -1.395219834e-08 0)
(5.578782508e-05 -1.085918116e-09 0)
(5.569263957e-05 1.21908413e-08 0)
(5.558114302e-05 2.589437132e-08 0)
(5.545067993e-05 4.000819673e-08 0)
(5.529871161e-05 5.448508464e-08 0)
(0.0002201189024 5.656524105e-06 0)
(0.0002251694576 1.297741595e-05 0)
(0.0002303385097 1.666630191e-05 0)
(0.0002340098785 1.862931993e-05 0)
(0.0002359019644 1.976905542e-05 0)
(0.0002362385305 2.020756201e-05 0)
(0.0002351979366 1.998883504e-05 0)
(0.0002329406223 1.925456421e-05 0)
(0.0002296963374 1.816177617e-05 0)
(0.0002257281748 1.68326035e-05 0)
(0.00022127443 1.53622678e-05 0)
(0.0002165305954 1.383145847e-05 0)
(0.0002116554812 1.230688397e-05 0)
(0.0002067774244 1.08392518e-05 0)
(0.0002019959385 9.46379378e-06 0)
(0.0001973834175 8.202544531e-06 0)
(0.000192989032 7.066818811e-06 0)
(0.000188843483 6.059527393e-06 0)
(0.0001849632453 5.177371281e-06 0)
(0.0001813540512 4.412826641e-06 0)
(0.0001780137832 3.755797161e-06 0)
(0.0001749348503 3.19490133e-06 0)
(0.0001721060472 2.718431736e-06 0)
(0.0001695140377 2.315036223e-06 0)
(0.0001671443665 1.974105512e-06 0)
(0.0001649821385 1.68601786e-06 0)
(0.0001630125054 1.44228043e-06 0)
(0.0001612210031 1.235571167e-06 0)
(0.0001595937636 1.059702753e-06 0)
(0.0001581176293 9.095382611e-07 0)
(0.0001567801993 7.808819554e-07 0)
(0.0001555698324 6.703610468e-07 0)
(0.0001544756263 5.753053083e-07 0)
(0.0001534873525 4.936534455e-07 0)
(0.0001525952986 4.238222221e-07 0)
(0.0001517902338 3.645880172e-07 0)
(0.0001510634171 3.150154166e-07 0)
(0.0001504065333 2.744041344e-07 0)
(0.0001498116153 2.422385524e-07 0)
(0.0001492709852 2.181420214e-07 0)
(0.0001487772063 2.018413809e-07 0)
(0.0001483230193 1.931538465e-07 0)
(0.000147901221 1.919449578e-07 0)
(0.0001475047913 1.980377715e-07 0)
(0.0001471270019 2.112528614e-07 0)
(0.0001467612268 2.314171962e-07 0)
(0.0001464009097 2.583428398e-07 0)
(0.0001460396138 2.918175262e-07 0)
(0.0001456710458 3.316003309e-07 0)
(0.0001452890647 3.774124188e-07 0)
(0.0002187777488 1.483881775e-06 0)
(0.0002200314307 4.441297019e-06 0)
(0.0002226044548 7.108067966e-06 0)
(0.0002259342349 9.499332139e-06 0)
(0.0002294883904 1.163640853e-05 0)
(0.0002330336462 1.340208266e-05 0)
(0.0002363991844 1.469836065e-05 0)
(0.0002393894549 1.551918907e-05 0)
(0.0002418534113 1.590849558e-05 0)
(0.0002437207121 1.592279379e-05 0)
(0.000244982361 1.562456981e-05 0)
(0.0002456655804 1.50819274e-05 0)
(0.0002458213342 1.43629334e-05 0)
(0.0002455162838 1.352913609e-05 0)
(0.0002448240675 1.263204303e-05 0)
(0.0002438179823 1.171242766e-05 0)
(0.0002425665637 1.080098935e-05 0)
(0.0002411314567 9.919513263e-06 0)
(0.0002395665066 9.082290407e-06 0)
(0.0002379175448 8.297646912e-06 0)
(0.0002362226912 7.569404811e-06 0)
(0.0002345130162 6.898154838e-06 0)
(0.0002328133809 6.282302532e-06 0)
(0.0002311432747 5.718898688e-06 0)
(0.0002295176249 5.204232649e-06 0)
(0.0002279476252 4.734278857e-06 0)
(0.0002264414404 4.305022911e-06 0)
(0.0002250047747 3.912675237e-06 0)
(0.00022364134 3.553793727e-06 0)
(0.0002223532423 3.225341842e-06 0)
(0.0002211412967 2.924703267e-06 0)
(0.0002200052784 2.649667128e-06 0)
(0.0002189441157 2.398391853e-06 0)
(0.0002179560323 2.16934526e-06 0)
(0.000217038658 1.961288785e-06 0)
(0.0002161891395 1.77325867e-06 0)
(0.0002154042265 1.604514351e-06 0)
(0.0002146803191 1.454484787e-06 0)
(0.000214013498 1.322725537e-06 0)
(0.0002133995518 1.208883179e-06 0)
(0.000212834 1.112665378e-06 0)
(0.0002123121163 1.033819624e-06 0)
(0.000211828957 9.72142475e-07 0)
(0.0002113794104 9.274826938e-07 0)
(0.0002109582132 8.996552698e-07 0)
(0.0002105599271 8.884246635e-07 0)
(0.0002101789554 8.935159569e-07 0)
(0.0002098095877 9.146109297e-07 0)
(0.0002094460308 9.51336862e-07 0)
(0.0002090824283 1.003258088e-06 0)
(0.0002187697887 1.505282141e-06 0)
(0.0002194907688 4.382178808e-06 0)
(0.0002207554913 6.825358179e-06 0)
(0.0002223803959 8.722350603e-06 0)
(0.0002242080117 1.016785028e-05 0)
(0.00022620632 1.12651496e-05 0)
(0.0002283707548 1.206161444e-05 0)
(0.0002306447975 1.258932333e-05 0)
(0.0002329404784 1.288474293e-05 0)
(0.0002351778932 1.298209967e-05 0)
(0.0002372948244 1.290997024e-05 0)
(0.0002392423635 1.269470872e-05 0)
(0.0002409843453 1.236274891e-05 0)
(0.0002424992803 1.193975215e-05 0)
(0.000243779876 1.144936362e-05 0)
(0.0002448302558 1.091264874e-05 0)
(0.0002456627633 1.034787734e-05 0)
(0.0002462952246 9.770353266e-06 0)
(0.0002467486914 9.192349817e-06 0)
(0.0002470455912 8.623242381e-06 0)
(0.0002472083194 8.069809948e-06 0)
(0.000247258281 7.536624382e-06 0)
(0.0002472153095 7.026463092e-06 0)
(0.0002470973603 6.540709631e-06 0)
(0.0002469204153 6.079759432e-06 0)
(0.0002466985334 5.643349128e-06 0)
(0.0002464439651 5.230807149e-06 0)
(0.0002461672947 4.841247246e-06 0)
(0.0002458775994 4.473715179e-06 0)
(0.0002455826127 4.127293652e-06 0)
(0.0002452888805 3.801170997e-06 0)
(0.0002450018971 3.494680334e-06 0)
(0.0002447262235 3.207316538e-06 0)
(0.0002444655849 2.93873853e-06 0)
(0.0002442229532 2.688768998e-06 0)
(0.0002440006178 2.457380821e-06 0)
(0.0002438002456 2.244667853e-06 0)
(0.0002436229274 2.050814607e-06 0)
(0.0002434692141 1.876071771e-06 0)
(0.000243339148 1.720735303e-06 0)
(0.0002432322898 1.585127892e-06 0)
(0.0002431477475 1.469583218e-06 0)
(0.0002430842007 1.374441123e-06 0)
(0.0002430399239 1.299997425e-06 0)
(0.0002430128131 1.246491412e-06 0)
(0.0002430004034 1.214101244e-06 0)
(0.0002429998841 1.20293272e-06 0)
(0.0002430081249 1.213009713e-06 0)
(0.0002430217064 1.244264411e-06 0)
(0.0002430369482 1.296528846e-06 0)
(0.0002187107373 1.056858552e-06 0)
(0.0002191110826 3.076779225e-06 0)
(0.0002199143503 4.879061315e-06 0)
(0.0002210380511 6.404952279e-06 0)
(0.000222347892 7.666373424e-06 0)
(0.0002237619095 8.687557879e-06 0)
(0.000225245865 9.475704293e-06 0)
(0.0002267721177 1.003735683e-05 0)
(0.0002283083711 1.039230328e-05 0)
(0.0002298272321 1.056860558e-05 0)
(0.0002313098239 1.059442899e-05 0)
(0.0002327417101 1.049572215e-05 0)
(0.0002341100924 1.029668259e-05 0)
(0.0002354043852 1.001957082e-05 0)
(0.0002366173071 9.684072183e-06 0)
(0.0002377449486 9.307010126e-06 0)
(0.0002387862728 8.902415298e-06 0)
(0.0002397426243 8.481705411e-06 0)
(0.0002406173044 8.053888352e-06 0)
(0.0002414151165 7.62581454e-06 0)
(0.0002421418916 7.202483138e-06 0)
(0.0002428040617 6.7873701e-06 0)
(0.0002434083194 6.382746997e-06 0)
(0.0002439613622 5.989975319e-06 0)
(0.0002444697102 5.609771703e-06 0)
(0.0002449395877 5.242423616e-06 0)
(0.000245376852 4.887957799e-06 0)
(0.0002457869571 4.546273439e-06 0)
(0.0002461749418 4.21724533e-06 0)
(0.000246545435 3.900797876e-06 0)
(0.0002469026696 3.596952992e-06 0)
(0.0002472504987 3.305856905e-06 0)
(0.000247592411 3.027791354e-06 0)
(0.0002479315437 2.763173221e-06 0)
(0.0002482706912 2.512545985e-06 0)
(0.0002486123115 2.276565887e-06 0)
(0.0002489585323 2.055982795e-06 0)
(0.0002493111541 1.851617626e-06 0)
(0.0002496716502 1.664337829e-06 0)
(0.0002500411636 1.49503694e-06 0)
(0.0002504205044 1.344615439e-06 0)
(0.0002508101604 1.213937851e-06 0)
(0.0002512102587 1.103915778e-06 0)
(0.0002516205852 1.015356152e-06 0)
(0.000252040632 9.489967482e-07 0)
(0.0002524695649 9.055148876e-07 0)
(0.0002529062189 8.854861578e-07 0)
(0.0002533491262 8.893701344e-07 0)
(0.0002537965348 9.175052029e-07 0)
(0.0002542464187 9.701009944e-07 0)
(0.00021869508 8.168359293e-07 0)
(0.0002189763635 2.419448257e-06 0)
(0.0002195589047 3.915471741e-06 0)
(0.0002204029902 5.240399715e-06 0)
(0.0002214164194 6.367214817e-06 0)
(0.0002225291442 7.293535768e-06 0)
(0.0002237029066 8.022801907e-06 0)
(0.0002249096956 8.561516326e-06 0)
(0.000226120978 8.923166264e-06 0)
(0.0002273116782 9.127220287e-06 0)
(0.0002284645719 9.195106287e-06 0)
(0.0002295693826 9.147941578e-06 0)
(0.0002306201894 9.00608675e-06 0)
(0.0002316141247 8.788799351e-06 0)
(0.0002325509661 8.513570603e-06 0)
(0.0002334326144 8.195619876e-06 0)
(0.0002342623931 7.847755573e-06 0)
(0.0002350444758 7.480469591e-06 0)
(0.0002357835185 7.102122129e-06 0)
(0.0002364844035 6.719173032e-06 0)
(0.0002371520303 6.33644967e-06 0)
(0.0002377911521 5.957430157e-06 0)
(0.0002384062659 5.584517429e-06 0)
(0.0002390015493 5.219289102e-06 0)
(0.0002395808316 4.862717266e-06 0)
(0.0002401475898 4.515355552e-06 0)
(0.0002407049635 4.177492995e-06 0)
(0.0002412557805 3.849277437e-06 0)
(0.0002418025857 3.530811834e-06 0)
(0.0002423476714 3.222225674e-06 0)
(0.0002428931055 2.923724877e-06 0)
(0.0002434407557 2.635623722e-06 0)
(0.0002439923091 2.35836249e-06 0)
(0.0002445492851 2.092513866e-06 0)
(0.0002451130433 1.838780907e-06 0)
(0.0002456847879 1.597985998e-06 0)
(0.0002462655656 1.371057127e-06 0)
(0.000246856258 1.159016945e-06 0)
(0.0002474575767 9.629589466e-07 0)
(0.0002480700529 7.840194297e-07 0)
(0.0002486940092 6.2336152e-07 0)
(0.0002493296764 4.821824969e-07 0)
(0.0002499768384 3.615685657e-07 0)
(0.0002506350949 2.626399947e-07 0)
(0.0002513040302 1.86456924e-07 0)
(0.0002519830281 1.339628792e-07 0)
(0.000252671217 1.060070953e-07 0)
(0.0002533675142 1.033359808e-07 0)
(0.0002540706417 1.265717673e-07 0)
(0.0002547791311 1.761983186e-07 0)
(0.0002186865109 6.502315186e-07 0)
(0.0002188955722 1.932931081e-06 0)
(0.0002193284614 3.147216424e-06 0)
(0.0002199660456 4.242999174e-06 0)
(0.000220751411 5.193573641e-06 0)
(0.0002216363319 5.992360076e-06 0)
(0.0002225897267 6.640520124e-06 0)
(0.0002235868955 7.141537764e-06 0)
(0.0002246030947 7.502294307e-06 0)
(0.0002256154379 7.733781708e-06 0)
(0.0002266061285 7.849595711e-06 0)
(0.0002275628748 7.86423984e-06 0)
(0.0002284776425 7.79231604e-06 0)
(0.0002293456936 7.648113956e-06 0)
(0.0002301651705 7.44514425e-06 0)
(0.0002309366889 7.195702842e-06 0)
(0.0002316627571 6.910625879e-06 0)
(0.0002323471828 6.599219931e-06 0)
(0.0002329945927 6.269286965e-06 0)
(0.0002336100642 5.927204416e-06 0)
(0.000234198831 5.578051929e-06 0)
(0.0002347660544 5.225773621e-06 0)
(0.0002353166609 4.87335743e-06 0)
(0.0002358552392 4.523015249e-06 0)
(0.0002363859844 4.176353932e-06 0)
(0.0002369126765 3.834531078e-06 0)
(0.0002374386824 3.498391137e-06 0)
(0.0002379669752 3.168579972e-06 0)
(0.0002385001611 2.84563828e-06 0)
(0.000239040511 2.530075706e-06 0)
(0.0002395899932 2.222427368e-06 0)
(0.0002401503035 1.923294127e-06 0)
(0.0002407228932 1.633370267e-06 0)
(0.0002413089902 1.353455049e-06 0)
(0.0002419096135 1.084464638e-06 0)
(0.0002425255874 8.274316295e-07 0)
(0.000243157551 5.834810681e-07 0)
(0.0002438059949 3.538210536e-07 0)
(0.0002444712237 1.397414448e-07 0)
(0.0002451533181 -5.739971731e-08 0)
(0.000245852195 -2.362089642e-07 0)
(0.0002465674784 -3.952603946e-07 0)
(0.0002472988459 -5.332243379e-07 0)
(0.000248045743 -6.487450042e-07 0)
(0.0002488072287 -7.405344706e-07 0)
(0.0002495821615 -8.07424531e-07 0)
(0.000250369258 -8.483463719e-07 0)
(0.0002511670652 -8.623432041e-07 0)
(0.0002519739654 -8.485958851e-07 0)
(0.0002527881999 -8.064407225e-07 0)
(0.0002186801622 5.239143665e-07 0)
(0.0002188390945 1.559999027e-06 0)
(0.0002191701812 2.550672867e-06 0)
(0.0002196647647 3.461091256e-06 0)
(0.0002202859029 4.268893803e-06 0)
(0.000220999357 4.964018285e-06 0)
(0.0002217802843 5.54279146e-06 0)
(0.0002226080047 6.004650539e-06 0)
(0.0002234625615 6.352235999e-06 0)
(0.0002243255486 6.591730037e-06 0)
(0.0002251818667 6.731980891e-06 0)
(0.0002260201614 6.783213414e-06 0)
(0.0002268322655 6.756172571e-06 0)
(0.0002276126351 6.661663288e-06 0)
(0.000228358063 6.510180172e-06 0)
(0.0002290674365 6.311559364e-06 0)
(0.0002297413857 6.074729061e-06 0)
(0.0002303818807 5.807584533e-06 0)
(0.0002309918661 5.516952749e-06 0)
(0.0002315749579 5.2086132e-06 0)
(0.0002321351873 4.887361342e-06 0)
(0.0002326767859 4.557105707e-06 0)
(0.0002332040142 4.220986147e-06 0)
(0.0002337210339 3.881500348e-06 0)
(0.000234231818 3.540629286e-06 0)
(0.0002347400918 3.199955524e-06 0)
(0.0002352492973 2.860770414e-06 0)
(0.0002357625764 2.524167777e-06 0)
(0.0002362827663 2.191123108e-06 0)
(0.0002368124041 1.86255952e-06 0)
(0.0002373537364 1.539401385e-06 0)
(0.0002379087311 1.222610068e-06 0)
(0.0002384790882 9.132205744e-07 0)
(0.0002390662477 6.123512091e-07 0)
(0.0002396714358 3.212037571e-07 0)
(0.000240295651 4.107784335e-08 0)
(0.0002409396046 -2.26619083e-07 0)
(0.0002416037551 -4.803957014e-07 0)
(0.0002422883396 -7.186924345e-07 0)
(0.0002429934011 -9.398941964e-07 0)
(0.0002437187411 -1.142357587e-06 0)
(0.000244463909 -1.32446114e-06 0)
(0.0002452282489 -1.484523072e-06 0)
(0.000246010888 -1.620958189e-06 0)
(0.0002468106982 -1.732248683e-06 0)
(0.000247626341 -1.816946938e-06 0)
(0.0002484562865 -1.873728819e-06 0)
(0.000249298811 -1.901420418e-06 0)
(0.0002501520124 -1.89901452e-06 0)
(0.0002510138396 -1.865686943e-06 0)
(0.0002186758589 4.264456167e-07 0)
(0.000218800756 1.272252927e-06 0)
(0.0002190617319 2.087539471e-06 0)
(0.0002194546241 2.846751472e-06 0)
(0.0002199538191 3.531138843e-06 0)
(0.0002205347316 4.129777954e-06 0)
(0.0002211785414 4.636992086e-06 0)
(0.0002218689167 5.050450605e-06 0)
(0.0002225900137 5.370734793e-06 0)
(0.0002233270669 5.601213395e-06 0)
(0.0002240675178 5.747465333e-06 0)
(0.0002248014162 5.816456205e-06 0)
(0.0002255212139 5.815879655e-06 0)
(0.0002262214565 5.753732851e-06 0)
(0.0002268985757 5.637993355e-06 0)
(0.0002275507084 5.476332451e-06 0)
(0.0002281774609 5.275892019e-06 0)
(0.0002287796333 5.043148583e-06 0)
(0.0002293589549 4.783851305e-06 0)
(0.0002299178512 4.503010444e-06 0)
(0.0002304592426 4.204922196e-06 0)
(0.0002309863689 3.893222065e-06 0)
(0.0002315026418 3.570958546e-06 0)
(0.000232011527 3.240678085e-06 0)
(0.0002325164529 2.904513897e-06 0)
(0.000233020743 2.564273412e-06 0)
(0.0002335275668 2.221521003e-06 0)
(0.0002340399053 1.877653065e-06 0)
(0.0002345605291 1.533962357e-06 0)
(0.0002350919865 1.19169388e-06 0)
(0.0002356365914 8.520953459e-07 0)
(0.0002361964222 5.164521062e-07 0)
(0.0002367733354 1.861025911e-07 0)
(0.0002373689287 -1.375280871e-07 0)
(0.0002379845164 -4.52918837e-07 0)
(0.000238621163 -7.584571607e-07 0)
(0.0002392797353 -1.052423456e-06 0)
(0.0002399608348 -1.333006215e-06 0)
(0.0002406647933 -1.598330005e-06 0)
(0.000241391674 -1.846474659e-06 0)
(0.0002421412695 -2.075484921e-06 0)
(0.000242913099 -2.283391724e-06 0)
(0.0002437064082 -2.468230997e-06 0)
(0.0002445201752 -2.628101695e-06 0)
(0.0002453531135 -2.761177092e-06 0)
(0.0002462036817 -2.865732394e-06 0)
(0.0002470701028 -2.940187015e-06 0)
(0.0002479503809 -2.98313293e-06 0)
(0.0002488423239 -2.993355581e-06 0)
(0.0002497435722 -2.969854705e-06 0)
(0.0002186727685 3.492532763e-07 0)
(0.0002187731303 1.043677077e-06 0)
(0.0002189830477 1.716878349e-06 0)
(0.0002193005486 2.349560868e-06 0)
(0.0002197072431 2.926597687e-06 0)
(0.0002201853806 3.438065693e-06 0)
(0.0002207210056 3.877925056e-06 0)
(0.000221301431 4.242897336e-06 0)
(0.0002219140093 4.532067391e-06 0)
(0.0002225467676 4.7467048e-06 0)
(0.0002231892805 4.889908214e-06 0)
(0.0002238330017 4.966095816e-06 0)
(0.0002244711948 4.980526646e-06 0)
(0.0002250987786 4.938933648e-06 0)
(0.0002257122017 4.847236618e-06 0)
(0.0002263093165 4.711299987e-06 0)
(0.000226889217 4.536738834e-06 0)
(0.0002274520447 4.328784579e-06 0)
(0.0002279987932 4.092206457e-06 0)
(0.0002285311267 3.831275761e-06 0)
(0.0002290512188 3.549762481e-06 0)
(0.0002295616084 3.250957824e-06 0)
(0.0002300650755 2.93771658e-06 0)
(0.0002305645372 2.612512763e-06 0)
(0.0002310629636 2.27750238e-06 0)
(0.0002315633116 1.934588477e-06 0)
(0.0002320684721 1.585486615e-06 0)
(0.0002325812275 1.231789937e-06 0)
(0.0002331042204 8.750071551e-07 0)
(0.0002336399345 5.166321715e-07 0)
(0.0002341906869 1.581673994e-07 0)
(0.0002347585849 -1.988335885e-07 0)
(0.0002353455018 -5.52744673e-07 0)
(0.0002359531129 -9.018409649e-07 0)
(0.0002365828713 -1.244281439e-06 0)
(0.0002372359743 -1.57811856e-06 0)
(0.0002379133552 -1.901316321e-06 0)
(0.0002386156717 -2.211746763e-06 0)
(0.0002393433013 -2.50719692e-06 0)
(0.0002400963326 -2.785386723e-06 0)
(0.0002408745514 -3.043992337e-06 0)
(0.0002416774303 -3.280676037e-06 0)
(0.0002425041276 -3.493117273e-06 0)
(0.0002433534922 -3.679048282e-06 0)
(0.0002442240676 -3.836291668e-06 0)
(0.0002451141007 -3.962795986e-06 0)
(0.0002460215617 -4.056673968e-06 0)
(0.0002469441689 -4.116237802e-06 0)
(0.0002478794151 -4.140029234e-06 0)
(0.0002488246006 -4.126845661e-06 0)
(0.000218670449 2.867966789e-07 0)
(0.0002187524531 8.58435613e-07 0)
(0.0002189240908 1.415251309e-06 0)
(0.0002191845776 1.942408887e-06 0)
(0.0002195202781 2.427759346e-06 0)
(0.000219918095 2.862631627e-06 0)
(0.0002203676255 3.241077479e-06 0)
(0.0002208590609 3.55926969e-06 0)
(0.0002213823545 3.815296042e-06 0)
(0.0002219278523 4.009030685e-06 0)
(0.0002224870022 4.141885244e-06 0)
(0.000223052611 4.21646065e-06 0)
(0.0002236188276 4.236196719e-06 0)
(0.0002241810798 4.205075705e-06 0)
(0.0002247360193 4.127380252e-06 0)
(0.0002252814487 4.007491561e-06 0)
(0.0002258162137 3.849725537e-06 0)
(0.0002263400687 3.65821094e-06 0)
(0.0002268535362 3.436808499e-06 0)
(0.0002273577689 3.189064616e-06 0)
(0.0002278544229 2.918192938e-06 0)
(0.0002283455408 2.627078693e-06 0)
(0.000228833448 2.318301011e-06 0)
(0.0002293206618 1.994168723e-06 0)
(0.0002298098156 1.656764014e-06 0)
(0.0002303035955 1.307990268e-06 0)
(0.0002308046943 9.496140301e-07 0)
(0.0002313157423 5.833737074e-07 0)
(0.0002318392977 2.108966302e-07 0)
(0.0002323778205 -1.661504681e-07 0)
(0.0002329336022 -5.460486986e-07 0)
(0.0002335087859 -9.270069429e-07 0)
(0.0002341053457 -1.307126083e-06 0)
(0.000234725046 -1.684398737e-06 0)
(0.000235369417 -2.056704543e-06 0)
(0.0002360397426 -2.421797494e-06 0)
(0.0002367370474 -2.777306585e-06 0)
(0.0002374620726 -3.120741817e-06 0)
(0.0002382152538 -3.449508388e-06 0)
(0.0002389967038 -3.760930458e-06 0)
(0.0002398061965 -4.052279055e-06 0)
(0.0002406431556 -4.320803226e-06 0)
(0.0002415066481 -4.563766065e-06 0)
(0.0002423953832 -4.778486715e-06 0)
(0.000243307717 -4.962385814e-06 0)
(0.0002442416626 -5.113029353e-06 0)
(0.0002451949102 -5.228173449e-06 0)
(0.0002461648542 -5.305808523e-06 0)
(0.0002471486271 -5.344198552e-06 0)
(0.0002481431404 -5.341913361e-06 0)
(0.0002186686694 2.354636946e-07 0)
(0.0002187366106 7.060683618e-07 0)
(0.0002188788663 1.166474276e-06 0)
(0.0002190952831 1.605005315e-06 0)
(0.0002193754452 2.011762792e-06 0)
(0.0002197094752 2.379235202e-06 0)
(0.0002200895678 2.701834087e-06 0)
(0.0002205081775 2.975576212e-06 0)
(0.0002209573746 3.198003676e-06 0)
(0.0002214294109 3.36810279e-06 0)
(0.0002219173126 3.486123818e-06 0)
(0.0002224150906 3.553338644e-06 0)
(0.0002229177509 3.571792949e-06 0)
(0.0002234212832 3.544082282e-06 0)
(0.0002239226523 3.473158457e-06 0)
(0.0002244197641 3.362165037e-06 0)
(0.000224911398 3.214302009e-06 0)
(0.0002253971162 3.032720909e-06 0)
(0.000225877164 2.820449667e-06 0)
(0.0002263523682 2.580344088e-06 0)
(0.0002268240396 2.31506219e-06 0)
(0.0002272938794 2.027057834e-06 0)
(0.0002277638939 1.718589283e-06 0)
(0.000228236318 1.391742477e-06 0)
(0.000228713546 1.048461578e-06 0)
(0.0002291980637 6.905880915e-07 0)
(0.0002296924724 3.199014254e-07 0)
(0.0002301993003 -6.190924531e-08 0)
(0.0002307210025 -4.530545871e-07 0)
(0.0002312600712 -8.517357453e-07 0)
(0.0002318188679 -1.256069631e-06 0)
(0.0002323996115 -1.664062512e-06 0)
(0.0002330043581 -2.07359851e-06 0)
(0.0002336349753 -2.482422077e-06 0)
(0.0002342931195 -2.888121754e-06 0)
(0.0002349802052 -3.288124258e-06 0)
(0.0002356973742 -3.679700509e-06 0)
(0.000236445466 -4.059976942e-06 0)
(0.0002372249912 -4.425951233e-06 0)
(0.0002380361059 -4.774515392e-06 0)
(0.0002388785901 -5.10248623e-06 0)
(0.0002397518288 -5.406642607e-06 0)
(0.0002406547989 -5.683769498e-06 0)
(0.0002415860638 -5.930708238e-06 0)
(0.0002425437757 -6.144410828e-06 0)
(0.0002435256863 -6.3219954e-06 0)
(0.0002445291678 -6.46080161e-06 0)
(0.0002455512439 -6.558444377e-06 0)
(0.0002465886305 -6.612863108e-06 0)
(0.0002476377859 -6.622363646e-06 0)
(0.0002186672735 1.927332217e-07 0)
(0.0002187241929 5.791752139e-07 0)
(0.0002188433793 9.588656427e-07 0)
(0.0002190250092 1.322409201e-06 0)
(0.0002192609374 1.661616074e-06 0)
(0.0002195435759 1.969983822e-06 0)
(0.0002198670195 2.242380822e-06 0)
(0.0002202254581 2.474867839e-06 0)
(0.0002206126364 2.664688852e-06 0)
(0.0002210223427 2.810236027e-06 0)
(0.0002214489095 2.910931136e-06 0)
(0.000221887393 2.967061275e-06 0)
(0.000222333595 2.979606083e-06 0)
(0.0002227840763 2.950071972e-06 0)
(0.0002232361743 2.880340591e-06 0)
(0.000223687996 2.772536698e-06 0)
(0.000224138379 2.628918191e-06 0)
(0.0002245868333 2.451788586e-06 0)
(0.0002250334721 2.243431019e-06 0)
(0.0002254789389 2.006062365e-06 0)
(0.0002259243341 1.741805867e-06 0)
(0.0002263711403 1.45268021e-06 0)
(0.0002268211559 1.140597759e-06 0)
(0.0002272764323 8.073788099e-07 0)
(0.000227739216 4.547882601e-07 0)
(0.0002282119056 8.453196127e-08 0)
(0.000228696916 -3.016809551e-07 0)
(0.0002291967852 -7.021660668e-07 0)
(0.0002297140998 -1.11508646e-06 0)
(0.000230251319 -1.538550702e-06 0)
(0.000230810874 -1.970560351e-06 0)
(0.0002313950968 -2.408969074e-06 0)
(0.0002320061822 -2.851460383e-06 0)
(0.0002326461583 -3.295529658e-06 0)
(0.0002333168472 -3.738476272e-06 0)
(0.000234019826 -4.177401836e-06 0)
(0.0002347563905 -4.609212818e-06 0)
(0.0002355275189 -5.030630089e-06 0)
(0.0002363338346 -5.438206371e-06 0)
(0.0002371755714 -5.82835257e-06 0)
(0.0002380525416 -6.197373578e-06 0)
(0.0002389641095 -6.541512816e-06 0)
(0.0002399091701 -6.857004927e-06 0)
(0.000240886138 -7.140136073e-06 0)
(0.0002418929451 -7.38731021e-06 0)
(0.0002429270511 -7.595118452e-06 0)
(0.0002439854654 -7.760408541e-06 0)
(0.0002450647827 -7.88035211e-06 0)
(0.0002461612316 -7.952507121e-06 0)
(0.0002472707351 -7.974872013e-06 0)
(0.0002186661558 1.567999455e-07 0)
(0.0002187142562 4.724491774e-07 0)
(0.000218814961 7.840023735e-07 0)
(0.0002189686081 1.083742459e-06 0)
(0.0002191687026 1.364776586e-06 0)
(0.0002194093153 1.621428499e-06 0)
(0.0002196859302 1.849005278e-06 0)
(0.0002199940527 2.0436917e-06 0)
(0.0002203287412 2.202579849e-06 0)
(0.0002206850197 2.323669421e-06 0)
(0.0002210583002 2.405796189e-06 0)
(0.0002214445338 2.44852226e-06 0)
(0.0002218402367 2.452015296e-06 0)
(0.0002222425142 2.416926682e-06 0)
(0.0002226490931 2.344275251e-06 0)
(0.0002230583316 2.235343672e-06 0)
(0.0002234692016 2.091591254e-06 0)
(0.0002238812534 1.914583191e-06 0)
(0.0002242945699 1.705935201e-06 0)
(0.000224709717 1.467273047e-06 0)
(0.0002251276888 1.200208033e-06 0)
(0.0002255498478 9.063335395e-07 0)
(0.0002259778699 5.871919083e-07 0)
(0.0002264137165 2.443161813e-07 0)
(0.0002268595501 -1.207746625e-07 0)
(0.0002273176831 -5.065336013e-07 0)
(0.0002277905789 -9.113751592e-07 0)
(0.0002282808022 -1.333580723e-06 0)
(0.0002287909517 -1.771399836e-06 0)
(0.0002293236093 -2.222915905e-06 0)
(0.0002298813352 -2.686041453e-06 0)
(0.0002304666256 -3.158494843e-06 0)
(0.0002310818654 -3.637776107e-06 0)
(0.0002317292867 -4.12115202e-06 0)
(0.0002324109246 -4.605645688e-06 0)
(0.0002331285733 -5.088030127e-06 0)
(0.0002338837394 -5.564829245e-06 0)
(0.0002346775938 -6.032327992e-06 0)
(0.000235510924 -6.486591759e-06 0)
(0.0002363840868 -6.92349595e-06 0)
(0.0002372969658 -7.338766958e-06 0)
(0.000238248933 -7.728034575e-06 0)
(0.0002392388185 -8.086895185e-06 0)
(0.00024026489 -8.410984773e-06 0)
(0.000241324845 -8.696060108e-06 0)
(0.0002424158177 -8.938085217e-06 0)
(0.0002435344022 -9.133319398e-06 0)
(0.0002446766929 -9.278403147e-06 0)
(0.000245838342 -9.37043858e-06 0)
(0.0002470146341 -9.407059904e-06 0)
(0.0002186652435 1.263473099e-07 0)
(0.0002187061512 3.820111152e-07 0)
(0.0002187917668 6.356850307e-07 0)
(0.00021892249 8.809012218e-07 0)
(0.0002190930554 1.111749977e-06 0)
(0.0002192987582 1.323212121e-06 0)
(0.0002195361064 1.510979176e-06 0)
(0.0002198016026 1.671386994e-06 0)
(0.0002200913331 1.801462787e-06 0)
(0.0002204013122 1.898946752e-06 0)
(0.0002207278361 1.96225344e-06 0)
(0.0002210676102 1.9904008e-06 0)
(0.0002214177743 1.982927131e-06 0)
(0.0002217759323 1.93980275e-06 0)
(0.0002221401903 1.861342456e-06 0)
(0.0002225091774 1.7481262e-06 0)
(0.0002228820424 1.600931692e-06 0)
(0.0002232584347 1.420678913e-06 0)
(0.0002236384765 1.208384903e-06 0)
(0.0002240227309 9.651285732e-07 0)
(0.0002244121752 6.920177415e-07 0)
(0.000224808116 3.902858029e-07 0)
(0.0002252121815 6.104865786e-08 0)
(0.000225626293 -2.944734454e-07 0)
(0.0002260526006 -6.750122719e-07 0)
(0.0002264934631 -1.079208816e-06 0)
(0.0002269513829 -1.505613485e-06 0)
(0.0002274289841 -1.952654889e-06 0)
(0.0002279289711 -2.418619502e-06 0)
(0.0002284540899 -2.901596905e-06 0)
(0.0002290070933 -3.399453843e-06 0)
(0.0002295906955 -3.90981135e-06 0)
(0.0002302075253 -4.430020621e-06 0)
(0.0002308600803 -4.95714227e-06 0)
(0.0002315506772 -5.487930974e-06 0)
(0.0002322813964 -6.018826894e-06 0)
(0.0002330540248 -6.545955192e-06 0)
(0.0002338699956 -7.065134921e-06 0)
(0.0002347303276 -7.571898659e-06 0)
(0.0002356355642 -8.061524597e-06 0)
(0.0002365857156 -8.529082744e-06 0)
(0.0002375802057 -8.969496021e-06 0)
(0.0002386178285 -9.377615802e-06 0)
(0.0002396967155 -9.748310512e-06 0)
(0.0002408143183 -1.007656545e-05 0)
(0.0002419674107 -1.035759107e-05 0)
(0.0002431521108 -1.058693526e-05 0)
(0.0002443639266 -1.076059411e-05 0)
(0.0002455978241 -1.087511628e-05 0)
(0.000246848319 -1.092769556e-05 0)
(0.0002186644852 1.00398614e-07 0)
(0.0002186994167 3.049768968e-07 0)
(0.0002187724847 5.092806698e-07 0)
(0.0002188840902 7.077809206e-07 0)
(0.0002190299047 8.953146109e-07 0)
(0.0002192061435 1.067377643e-06 0)
(0.0002194100759 1.219981647e-06 0)
(0.0002196389612 1.349608954e-06 0)
(0.0002198896877 1.453264999e-06 0)
(0.0002201590593 1.52851148e-06 0)
(0.000220444092 1.573450704e-06 0)
(0.0002207421201 1.586682524e-06 0)
(0.0002210508192 1.567248873e-06 0)
(0.0002213682371 1.514570432e-06 0)
(0.0002216928346 1.428381415e-06 0)
(0.000222023511 1.30866995e-06 0)
(0.0002223596112 1.155627485e-06 0)
(0.0002227009171 9.696071567e-07 0)
(0.0002230476314 7.510902654e-07 0)
(0.0002234003452 5.006614425e-07 0)
(0.0002237601498 2.189984297e-07 0)
(0.0002241283177 -9.325535226e-08 0)
(0.0002245063963 -4.352134142e-07 0)
(0.0002248964153 -8.059844789e-07 0)
(0.0002253005776 -1.204577162e-06 0)
(0.0002257212935 -1.629889984e-06 0)
(0.0002261611579 -2.0806775e-06 0)
(0.0002266229234 -2.555521899e-06 0)
(0.0002271094658 -3.052800571e-06 0)
(0.000227623742 -3.570651468e-06 0)
(0.0002281687487 -4.106942078e-06 0)
(0.0002287474796 -4.659238677e-06 0)
(0.0002293628773 -5.224775965e-06 0)
(0.000230017781 -5.800431187e-06 0)
(0.0002307148674 -6.382704253e-06 0)
(0.0002314565874 -6.967704326e-06 0)
(0.0002322450958 -7.551144494e-06 0)
(0.0002330821786 -8.128347045e-06 0)
(0.0002339691758 -8.69426174e-06 0)
(0.0002349069033 -9.243499334e-06 0)
(0.0002358955753 -9.770382547e-06 0)
(0.0002369347328 -1.026901615e-05 0)
(0.0002380231803 -1.073337636e-05 0)
(0.0002391589368 -1.115741823e-05 0)
(0.0002403392046 -1.153519869e-05 0)
(0.0002415603615 -1.18610125e-05 0)
(0.0002428179803 -1.212953617e-05 0)
(0.0002441068792 -1.23359725e-05 0)
(0.0002454212023 -1.247618749e-05 0)
(0.0002467545313 -1.254683265e-05 0)
(0.0002186638432 7.821989493e-08 0)
(0.0002186937189 2.391759204e-07 0)
(0.0002187561644 4.012901081e-07 0)
(0.0002188515446 5.597443124e-07 0)
(0.0002189762597 7.099430749e-07 0)
(0.0002191272278 8.477810853e-07 0)
(0.0002193022875 9.69526515e-07 0)
(0.000219499273 1.071787944e-06 0)