/*--------------------------------*- C++ -*----------------------------------*\
| =========                 |                                                 |
| \\      /  F ield         | foam-extend: Open Source CFD                    |
|  \\    /   O peration     | Version:     4.1                                |
|   \\  /    A nd           | Web:         http://www.foam-extend.org         |
|    \\/     M anipulation  |                                                 |
\*---------------------------------------------------------------------------*/
FoamFile
{
    version     2.0;
    format      ascii;
    class       volVectorField;
    location    "150000";
    object      vorticity;
}
// * * * * * * * * * * * * * * * * * * * * * * * * * * * * * * * * * * * * * //

dimensions      [0 0 -1 0 0 0 0];

internalField   nonuniform List<vector> 
15920
(
(0 -0 -0.008255946924)
(0 -0 -0.00840452486)
(0 -0 -0.008447731512)
(0 -0 -0.008321420817)
(0 -0 -0.008108909315)
(0 -0 -0.007868281085)
(0 -0 -0.007610496989)
(0 -0 -0.007336834395)
(0 -0 -0.007055846852)
(0 -0 -0.006778509631)
(0 -0 -0.006512528594)
(0 -0 -0.006262186319)
(0 -0 -0.006029942965)
(0 -0 -0.005817153707)
(0 -0 -0.005624156657)
(0 -0 -0.005450432006)
(0 -0 -0.005294895507)
(0 -0 -0.005156158098)
(0 -0 -0.005032696055)
(0 -0 -0.004922961238)
(0 -0 -0.00482545715)
(0 -0 -0.004738788039)
(0 -0 -0.004661684931)
(0 -0 -0.00459301499)
(0 -0 -0.004531778636)
(0 -0 -0.004477102221)
(0 -0 -0.004428226971)
(0 -0 -0.004384495908)
(0 -0 -0.004345340229)
(0 -0 -0.004310266074)
(0 -0 -0.004278842128)
(0 -0 -0.004250688256)
(0 -0 -0.004225463763)
(0 -0 -0.004202865034)
(0 -0 -0.004182620708)
(0 -0 -0.0041644796)
(0 -0 -0.004148203417)
(0 -0 -0.0041335641)
(0 -0 -0.004120342159)
(0 -0 -0.004108325022)
(0 -0 -0.004097306494)
(0 -0 -0.004087089569)
(0 -0 -0.004077481107)
(0 -0 -0.004068282119)
(0 -0 -0.00405929433)
(0 -0 -0.004050327461)
(0 -0 -0.004041196478)
(0 -0 -0.004031719702)
(0 -0 -0.004021719746)
(0 -0 -0.00401102451)
(0 -0 0.0003550973601)
(0 -0 -8.623686357e-06)
(0 -0 -0.0003968886267)
(0 -0 -0.0007986645956)
(0 -0 -0.001197129306)
(0 -0 -0.001575981224)
(0 -0 -0.001925990375)
(0 -0 -0.002241994297)
(0 -0 -0.002519920434)
(0 -0 -0.002757434731)
(0 -0 -0.002954830222)
(0 -0 -0.003114548152)
(0 -0 -0.003240184114)
(0 -0 -0.003335819921)
(0 -0 -0.003405690033)
(0 -0 -0.003453946579)
(0 -0 -0.003484462883)
(0 -0 -0.003500709567)
(0 -0 -0.003505706761)
(0 -0 -0.003502024614)
(0 -0 -0.003491808433)
(0 -0 -0.003476817152)
(0 -0 -0.00345846913)
(0 -0 -0.003437890843)
(0 -0 -0.003415964108)
(0 -0 -0.003393368794)
(0 -0 -0.003370620627)
(0 -0 -0.003348104)
(0 -0 -0.00332609979)
(0 -0 -0.003304808378)
(0 -0 -0.003284368355)
(0 -0 -0.003264871567)
(0 -0 -0.003246375293)
(0 -0 -0.003228909087)
(0 -0 -0.003212482141)
(0 -0 -0.003197090303)
(0 -0 -0.003182719653)
(0 -0 -0.003169348896)
(0 -0 -0.003156951076)
(0 -0 -0.003145494653)
(0 -0 -0.003134943413)
(0 -0 -0.003125255643)
(0 -0 -0.003116388221)
(0 -0 -0.003108298516)
(0 -0 -0.003100940764)
(0 -0 -0.003094264791)
(0 -0 -0.003088216308)
(0 -0 -0.003082737456)
(0 -0 -0.003077767146)
(0 -0 -0.003073241137)
(0 -0 0.0001751117427)
(0 -0 0.0002541784315)
(0 -0 0.0003181112472)
(0 -0 0.0003457981668)
(0 -0 0.0003314478152)
(0 -0 0.0002771930125)
(0 -0 0.0001894712953)
(0 -0 7.616986884e-05)
(0 -0 -5.479270182e-05)
(0 -0 -0.0001960925125)
(0 -0 -0.0003414295469)
(0 -0 -0.0004857762714)
(0 -0 -0.0006253970654)
(0 -0 -0.0007577093764)
(0 -0 -0.0008810964607)
(0 -0 -0.0009947131091)
(0 -0 -0.001098297485)
(0 -0 -0.001192002305)
(0 -0 -0.001276255581)
(0 -0 -0.001351652939)
(0 -0 -0.001418878025)
(0 -0 -0.001478646172)
(0 -0 -0.001531666649)
(0 -0 -0.001578618198)
(0 -0 -0.001620136472)
(0 -0 -0.001656808141)
(0 -0 -0.001689169285)
(0 -0 -0.001717706562)
(0 -0 -0.00174286005)
(0 -0 -0.00176502693)
(0 -0 -0.001784565491)
(0 -0 -0.001801799079)
(0 -0 -0.001817019992)
(0 -0 -0.001830492226)
(0 -0 -0.001842455256)
(0 -0 -0.001853127041)
(0 -0 -0.001862705917)
(0 -0 -0.001871372603)
(0 -0 -0.001879292017)
(0 -0 -0.001886614761)
(0 -0 -0.001893478259)
(0 -0 -0.001900007635)
(0 -0 -0.001906318016)
(0 -0 -0.001912514833)
(0 -0 -0.001918692674)
(0 -0 -0.001924937015)
(0 -0 -0.001931324832)
(0 -0 -0.001937924699)
(0 -0 -0.001944797034)
(0 -0 -0.001951994354)
(0 -0 0.0001485267529)
(0 -0 0.0001514088643)
(0 -0 0.0001623063861)
(0 -0 0.0001814859786)
(0 -0 0.0002063799437)
(0 -0 0.0002327788389)
(0 -0 0.0002561707324)
(0 -0 0.0002729249551)
(0 -0 0.0002807202109)
(0 -0 0.0002785002817)
(0 -0 0.0002662659674)
(0 -0 0.0002447968741)
(0 -0 0.0002153509209)
(0 -0 0.000179403339)
(0 -0 0.0001384576234)
(0 -0 9.392351568e-05)
(0 -0 4.70484303e-05)
(0 -0 -1.11153967e-06)
(0 -0 -4.969372831e-05)
(0 -0 -9.801493119e-05)
(0 -0 -0.0001455494588)
(0 -0 -0.0001919045815)
(0 -0 -0.0002367966383)
(0 -0 -0.0002800293416)
(0 -0 -0.0003214757191)
(0 -0 -0.000361063057)
(0 -0 -0.0003987607806)
(0 -0 -0.0004345709471)
(0 -0 -0.000468520875)
(0 -0 -0.0005006574592)
(0 -0 -0.0005310427909)
(0 -0 -0.0005597507679)
(0 -0 -0.0005868644509)
(0 -0 -0.0006124739171)
(0 -0 -0.0006366746077)
(0 -0 -0.0006595659699)
(0 -0 -0.000681250271)
(0 -0 -0.0007018316011)
(0 -0 -0.0007214150255)
(0 -0 -0.0007401058335)
(0 -0 -0.00075800889)
(0 -0 -0.0007752280515)
(0 -0 -0.0007918656782)
(0 -0 -0.0008080222385)
(0 -0 -0.0008237957801)
(0 -0 -0.0008392817233)
(0 -0 -0.0008545725582)
(0 -0 -0.000869757479)
(0 -0 -0.0008849221002)
(0 -0 -0.0009001482276)
(0 -0 0.0001048351191)
(0 -0 0.0001058431749)
(0 -0 0.0001071360574)
(0 -0 0.0001092309168)
(0 -0 0.0001128969869)
(0 -0 0.0001187767869)
(0 -0 0.0001271019391)
(0 -0 0.0001376170137)
(0 -0 0.0001496712266)
(0 -0 0.0001623774432)
(0 -0 0.000174782964)
(0 -0 0.0001860159568)
(0 -0 0.0001953793353)
(0 -0 0.0002023878521)
(0 -0 0.0002067641805)
(0 -0 0.0002084114066)
(0 -0 0.0002073747854)
(0 -0 0.0002038018016)
(0 -0 0.0001979061863)
(0 -0 0.0001899386239)
(0 -0 0.0001801646708)
(0 -0 0.0001688491741)
(0 -0 0.000156246002)
(0 -0 0.0001425918374)
(0 -0 0.0001281028821)
(0 -0 0.000112973525)
(0 -0 9.737627762e-05)
(0 -0 8.146247397e-05)
(0 -0 6.536338471e-05)
(0 -0 4.919151782e-05)
(0 -0 3.304197502e-05)
(0 -0 1.699378764e-05)
(0 -0 1.111195622e-06)
(0 -0 -1.455513804e-05)
(0 -0 -2.996698485e-05)
(0 -0 -4.509748174e-05)
(0 -0 -5.993010636e-05)
(0 -0 -7.445773628e-05)
(0 -0 -8.868176937e-05)
(0 -0 -0.000102611157)
(0 -0 -0.0001162618649)
(0 -0 -0.0001296560696)
(0 -0 -0.0001428172978)
(0 -0 -0.0001557763948)
(0 -0 -0.0001685703742)
(0 -0 -0.000181240259)
(0 -0 -0.0001938302771)
(0 -0 -0.0002063873108)
(0 -0 -0.0002189604347)
(0 -0 -0.0002316005139)
(0 -0 8.13916324e-05)
(0 -0 8.177610235e-05)
(0 -0 8.224156358e-05)
(0 -0 8.273368777e-05)
(0 -0 8.325801952e-05)
(0 -0 8.390122792e-05)
(0 -0 8.482227874e-05)
(0 -0 8.621355486e-05)
(0 -0 8.824812711e-05)
(0 -0 9.103438625e-05)
(0 -0 9.459194047e-05)
(0 -0 9.885121651e-05)
(0 -0 0.0001036704438)
(0 -0 0.0001088609288)
(0 -0 0.0001142132455)
(0 -0 0.0001195198198)
(0 -0 0.000124591557)
(0 -0 0.0001292679942)
(0 -0 0.0001334218198)
(0 -0 0.0001369592355)
(0 -0 0.0001398176409)
(0 -0 0.0001419618402)
(0 -0 0.0001433796447)
(0 -0 0.000144077456)
(0 -0 0.000144076177)
(0 -0 0.0001434076183)
(0 -0 0.0001421114398)
(0 -0 0.0001402326089)
(0 -0 0.0001378193198)
(0 -0 0.0001349213064)
(0 -0 0.000131588481)
(0 -0 0.0001278698442)
(0 -0 0.0001238126104)
(0 -0 0.0001194615322)
(0 -0 0.0001148583577)
(0 -0 0.0001100413876)
(0 -0 0.0001050453981)
(0 -0 9.990072828e-05)
(0 -0 9.463359127e-05)
(0 -0 8.926697424e-05)
(0 -0 8.382026538e-05)
(0 -0 7.830881482e-05)
(0 -0 7.273969322e-05)
(0 -0 6.71190528e-05)
(0 -0 6.145113758e-05)
(0 -0 5.573682326e-05)
(0 -0 4.997354411e-05)
(0 -0 4.415533856e-05)
(0 -0 3.82729449e-05)
(0 -0 3.231393618e-05)
(0 -0 6.487742045e-05)
(0 -0 6.517000344e-05)
(0 -0 6.552617362e-05)
(0 -0 6.592343985e-05)
(0 -0 6.634435335e-05)
(0 -0 6.676940724e-05)
(0 -0 6.718188747e-05)
(0 -0 6.757817276e-05)
(0 -0 6.797442862e-05)
(0 -0 6.840512686e-05)
(0 -0 6.891555763e-05)
(0 -0 6.95524329e-05)
(0 -0 7.035532972e-05)
(0 -0 7.13504971e-05)
(0 -0 7.254778448e-05)
(0 -0 7.394059872e-05)
(0 -0 7.550807508e-05)
(0 -0 7.721843058e-05)
(0 -0 7.903266042e-05)
(0 -0 8.090803515e-05)
(0 -0 8.280108891e-05)
(0 -0 8.466996097e-05)
(0 -0 8.647607425e-05)
(0 -0 8.818522123e-05)
(0 -0 8.976816787e-05)
(0 -0 9.120089031e-05)
(0 -0 9.246454605e-05)
(0 -0 9.354525922e-05)
(0 -0 9.443378122e-05)
(0 -0 9.512507377e-05)
(0 -0 9.561784351e-05)
(0 -0 9.591406507e-05)
(0 -0 9.601844233e-05)
(0 -0 9.593810843e-05)
(0 -0 9.56815643e-05)
(0 -0 9.525814852e-05)
(0 -0 9.467895629e-05)
(0 -0 9.395656803e-05)
(0 -0 9.31042224e-05)
(0 -0 9.213427483e-05)
(0 -0 9.105884556e-05)
(0 -0 8.988996194e-05)
(0 -0 8.863467552e-05)
(0 -0 8.730138405e-05)
(0 -0 8.589965066e-05)
(0 -0 8.443844454e-05)
(0 -0 8.292564312e-05)
(0 -0 8.136782679e-05)
(0 -0 7.977014937e-05)
(0 -0 7.813624574e-05)
(0 -0 5.231087485e-05)
(0 -0 5.256528784e-05)
(0 -0 5.286189476e-05)
(0 -0 5.318395222e-05)
(0 -0 5.352501375e-05)
(0 -0 5.387944846e-05)
(0 -0 5.423951307e-05)
(0 -0 5.459568775e-05)
(0 -0 5.493860818e-05)
(0 -0 5.526104086e-05)
(0 -0 5.555929781e-05)
(0 -0 5.58339653e-05)
(0 -0 5.608981801e-05)
(0 -0 5.633493183e-05)
(0 -0 5.657929752e-05)
(0 -0 5.683333114e-05)
(0 -0 5.710655434e-05)
(0 -0 5.740658104e-05)
(0 -0 5.773847279e-05)
(0 -0 5.810447478e-05)
(0 -0 5.85040804e-05)
(0 -0 5.893433065e-05)
(0 -0 5.939024722e-05)
(0 -0 5.986532178e-05)
(0 -0 6.035201003e-05)
(0 -0 6.084219738e-05)
(0 -0 6.132761818e-05)
(0 -0 6.180021532e-05)
(0 -0 6.225243308e-05)
(0 -0 6.267744569e-05)
(0 -0 6.306929929e-05)
(0 -0 6.342310676e-05)
(0 -0 6.373468314e-05)
(0 -0 6.400080867e-05)
(0 -0 6.422010771e-05)
(0 -0 6.43929169e-05)
(0 -0 6.451947557e-05)
(0 -0 6.460136877e-05)
(0 -0 6.464114603e-05)
(0 -0 6.464125381e-05)
(0 -0 6.460433609e-05)
(0 -0 6.453345105e-05)
(0 -0 6.443632755e-05)
(0 -0 6.431821417e-05)
(0 -0 6.418258618e-05)
(0 -0 6.403259171e-05)
(0 -0 6.387126801e-05)
(0 -0 6.370154243e-05)
(0 -0 6.352616773e-05)
(0 -0 6.334764641e-05)
(0 -0 4.261533758e-05)
(0 -0 4.284662992e-05)
(0 -0 4.310513354e-05)
(0 -0 4.337430685e-05)
(0 -0 4.364885672e-05)
(0 -0 4.39258591e-05)
(0 -0 4.420239117e-05)
(0 -0 4.447504135e-05)
(0 -0 4.474011229e-05)
(0 -0 4.499388518e-05)
(0 -0 4.52327925e-05)
(0 -0 4.545355169e-05)
(0 -0 4.56533311e-05)
(0 -0 4.582997128e-05)
(0 -0 4.598221625e-05)
(0 -0 4.610986666e-05)
(0 -0 4.621377882e-05)
(0 -0 4.629570069e-05)
(0 -0 4.635800436e-05)
(0 -0 4.640339644e-05)
(0 -0 4.643466167e-05)
(0 -0 4.645445983e-05)
(0 -0 4.646517558e-05)
(0 -0 4.646881825e-05)
(0 -0 4.646697048e-05)
(0 -0 4.646078123e-05)
(0 -0 4.645099556e-05)
(0 -0 4.643801199e-05)
(0 -0 4.642193858e-05)
(0 -0 4.640271683e-05)
(0 -0 4.637994462e-05)
(0 -0 4.635310484e-05)
(0 -0 4.632222335e-05)
(0 -0 4.628715898e-05)
(0 -0 4.624806316e-05)
(0 -0 4.620591838e-05)
(0 -0 4.616126066e-05)
(0 -0 4.611400323e-05)
(0 -0 4.606405647e-05)
(0 -0 4.601249859e-05)
(0 -0 4.59608672e-05)
(0 -0 4.591092265e-05)
(0 -0 4.586467742e-05)
(0 -0 4.582426353e-05)
(0 -0 4.579184519e-05)
(0 -0 4.576955832e-05)
(0 -0 4.575948309e-05)
(0 -0 4.57636279e-05)
(0 -0 4.578390166e-05)
(0 -0 4.58220864e-05)
(0 -0 3.493145704e-05)
(0 -0 3.515668455e-05)
(0 -0 3.53999178e-05)
(0 -0 3.564391408e-05)
(0 -0 3.588344195e-05)
(0 -0 3.611591625e-05)
(0 -0 3.633910813e-05)
(0 -0 3.6550676e-05)
(0 -0 3.674836994e-05)
(0 -0 3.6930314e-05)
(0 -0 3.709508722e-05)
(0 -0 3.724156321e-05)
(0 -0 3.736867152e-05)
(0 -0 3.747528393e-05)
(0 -0 3.756028694e-05)
(0 -0 3.762274883e-05)
(0 -0 3.766205864e-05)
(0 -0 3.767798197e-05)
(0 -0 3.767065344e-05)
(0 -0 3.764054689e-05)
(0 -0 3.758844611e-05)
(0 -0 3.751541345e-05)
(0 -0 3.742275019e-05)
(0 -0 3.731194824e-05)
(0 -0 3.718463991e-05)
(0 -0 3.70425566e-05)
(0 -0 3.68874861e-05)
(0 -0 3.672127326e-05)
(0 -0 3.654568269e-05)
(0 -0 3.63623269e-05)
(0 -0 3.617313897e-05)
(0 -0 3.597992279e-05)
(0 -0 3.578461122e-05)
(0 -0 3.558923483e-05)
(0 -0 3.539504879e-05)
(0 -0 3.520253564e-05)
(0 -0 3.501305367e-05)
(0 -0 3.482822999e-05)
(0 -0 3.464979115e-05)
(0 -0 3.447951892e-05)
(0 -0 3.43192273e-05)
(0 -0 3.417074437e-05)
(0 -0 3.403589627e-05)
(0 -0 3.391648076e-05)
(0 -0 3.381423786e-05)
(0 -0 3.373082546e-05)
(0 -0 3.366780708e-05)
(0 -0 3.36266535e-05)
(0 -0 3.360873964e-05)
(0 -0 3.361532453e-05)
(0 -0 2.87127909e-05)
(0 -0 2.894175987e-05)
(0 -0 2.918295994e-05)
(0 -0 2.941801101e-05)
(0 -0 2.964152624e-05)
(0 -0 2.985106009e-05)
(0 -0 3.004470646e-05)
(0 -0 3.022053312e-05)
(0 -0 3.037672012e-05)
(0 -0 3.051186253e-05)
(0 -0 3.062510744e-05)
(0 -0 3.071600913e-05)
(0 -0 3.078425467e-05)
(0 -0 3.082949732e-05)
(0 -0 3.085138357e-05)
(0 -0 3.084967891e-05)
(0 -0 3.082436294e-05)
(0 -0 3.077564383e-05)
(0 -0 3.07039262e-05)
(0 -0 3.060978035e-05)
(0 -0 3.049393487e-05)
(0 -0 3.03572819e-05)
(0 -0 3.020088162e-05)
(0 -0 3.002595844e-05)
(0 -0 2.983389116e-05)
(0 -0 2.96262075e-05)
(0 -0 2.940458028e-05)
(0 -0 2.917060862e-05)
(0 -0 2.892625293e-05)
(0 -0 2.867363337e-05)
(0 -0 2.841496877e-05)
(0 -0 2.815253243e-05)
(0 -0 2.788807783e-05)
(0 -0 2.762329107e-05)
(0 -0 2.73600678e-05)
(0 -0 2.71003315e-05)
(0 -0 2.68460134e-05)
(0 -0 2.659906881e-05)
(0 -0 2.636148488e-05)
(0 -0 2.613526638e-05)
(0 -0 2.592240711e-05)
(0 -0 2.572485606e-05)
(0 -0 2.554448683e-05)
(0 -0 2.538307405e-05)
(0 -0 2.524227292e-05)
(0 -0 2.51235968e-05)
(0 -0 2.502839871e-05)
(0 -0 2.495787252e-05)
(0 -0 2.491307045e-05)
(0 -0 2.489490809e-05)
(0 -0 2.360181149e-05)
(0 -0 2.384046762e-05)
(0 -0 2.408765363e-05)
(0 -0 2.432358069e-05)
(0 -0 2.454256089e-05)
(0 -0 2.4742164e-05)
(0 -0 2.492064635e-05)
(0 -0 2.507629579e-05)
(0 -0 2.520752703e-05)
(0 -0 2.531319485e-05)
(0 -0 2.539275064e-05)
(0 -0 2.54460886e-05)
(0 -0 2.547324334e-05)
(0 -0 2.547420791e-05)
(0 -0 2.544896827e-05)
(0 -0 2.539764441e-05)
(0 -0 2.532059032e-05)
(0 -0 2.52184003e-05)
(0 -0 2.509186173e-05)
(0 -0 2.494191121e-05)
(0 -0 2.476961844e-05)
(0 -0 2.457618659e-05)
(0 -0 2.436295694e-05)
(0 -0 2.413139902e-05)
(0 -0 2.38831324e-05)
(0 -0 2.36197938e-05)
(0 -0 2.334313353e-05)
(0 -0 2.305524293e-05)
(0 -0 2.275829606e-05)
(0 -0 2.245465306e-05)
(0 -0 2.214639529e-05)
(0 -0 2.183556045e-05)
(0 -0 2.152427927e-05)
(0 -0 2.121467358e-05)
(0 -0 2.090884123e-05)
(0 -0 2.060886338e-05)
(0 -0 2.031682033e-05)
(0 -0 2.003480513e-05)
(0 -0 1.976492294e-05)
(0 -0 1.95092727e-05)
(0 -0 1.92699166e-05)
(0 -0 1.904884145e-05)
(0 -0 1.884791859e-05)
(0 -0 1.866887154e-05)
(0 -0 1.851325802e-05)
(0 -0 1.838245986e-05)
(0 -0 1.827767158e-05)
(0 -0 1.819989174e-05)
(0 -0 1.814992782e-05)
(0 -0 1.812840595e-05)
(0 -0 1.934798308e-05)
(0 -0 1.960039744e-05)
(0 -0 1.985895447e-05)
(0 -0 2.010225982e-05)
(0 -0 2.032421825e-05)
(0 -0 2.052231666e-05)
(0 -0 2.0694852e-05)
(0 -0 2.084019663e-05)
(0 -0 2.095687181e-05)
(0 -0 2.104388076e-05)
(0 -0 2.110088011e-05)
(0 -0 2.112800856e-05)
(0 -0 2.112555174e-05)
(0 -0 2.109374259e-05)
(0 -0 2.103280112e-05)
(0 -0 2.094309048e-05)
(0 -0 2.082522557e-05)
(0 -0 2.068007836e-05)
(0 -0 2.050872498e-05)
(0 -0 2.031239666e-05)
(0 -0 2.00924628e-05)
(0 -0 1.985042987e-05)
(0 -0 1.95879462e-05)
(0 -0 1.930679152e-05)
(0 -0 1.900874702e-05)
(0 -0 1.869588214e-05)
(0 -0 1.837041912e-05)
(0 -0 1.803482575e-05)
(0 -0 1.769139935e-05)
(0 -0 1.734238972e-05)
(0 -0 1.699019332e-05)
(0 -0 1.663721831e-05)
(0 -0 1.62858393e-05)
(0 -0 1.593837598e-05)
(0 -0 1.55970938e-05)
(0 -0 1.526422463e-05)
(0 -0 1.494198887e-05)
(0 -0 1.463260507e-05)
(0 -0 1.433828308e-05)
(0 -0 1.406120236e-05)
(0 -0 1.380348016e-05)
(0 -0 1.3567132e-05)
(0 -0 1.335402653e-05)
(0 -0 1.316584409e-05)
(0 -0 1.300405407e-05)
(0 -0 1.286991348e-05)
(0 -0 1.276446984e-05)
(0 -0 1.26885541e-05)
(0 -0 1.264277184e-05)
(0 -0 1.262750467e-05)
(0 -0 1.577182731e-05)
(0 -0 1.604089474e-05)
(0 -0 1.631458269e-05)
(0 -0 1.656974067e-05)
(0 -0 1.679979155e-05)
(0 -0 1.700207233e-05)
(0 -0 1.717484239e-05)
(0 -0 1.731647315e-05)
(0 -0 1.742550817e-05)
(0 -0 1.750101871e-05)
(0 -0 1.754279023e-05)
(0 -0 1.755113456e-05)
(0 -0 1.752652459e-05)
(0 -0 1.746937861e-05)
(0 -0 1.738010514e-05)
(0 -0 1.725927162e-05)
(0 -0 1.710772031e-05)
(0 -0 1.692656997e-05)
(0 -0 1.671715684e-05)
(0 -0 1.648098198e-05)
(0 -0 1.621968962e-05)
(0 -0 1.593508332e-05)
(0 -0 1.562905519e-05)
(0 -0 1.530362182e-05)
(0 -0 1.49610635e-05)
(0 -0 1.460383678e-05)
(0 -0 1.423448402e-05)
(0 -0 1.385540416e-05)
(0 -0 1.346919569e-05)
(0 -0 1.307854167e-05)
(0 -0 1.268613967e-05)
(0 -0 1.229466009e-05)
(0 -0 1.190671026e-05)
(0 -0 1.152481965e-05)
(0 -0 1.11514475e-05)
(0 -0 1.07890034e-05)
(0 -0 1.04398681e-05)
(0 -0 1.0106403e-05)
(0 -0 9.790941667e-06)
(0 -0 9.49576358e-06)
(0 -0 9.22305581e-06)
(0 -0 8.974869732e-06)
(0 -0 8.753076589e-06)
(0 -0 8.559326855e-06)
(0 -0 8.395024779e-06)
(0 -0 8.261325672e-06)
(0 -0 8.159142838e-06)
(0 -0 8.089142459e-06)
(0 -0 8.051730736e-06)
(0 -0 8.047059299e-06)
(0 -0 1.274237208e-05)
(0 -0 1.30302335e-05)
(0 -0 1.332177809e-05)
(0 -0 1.359198154e-05)
(0 -0 1.383373069e-05)
(0 -0 1.404416621e-05)
(0 -0 1.422145797e-05)
(0 -0 1.436392077e-05)
(0 -0 1.447006489e-05)
(0 -0 1.453897539e-05)
(0 -0 1.457051406e-05)
(0 -0 1.456511667e-05)
(0 -0 1.452339857e-05)
(0 -0 1.444592425e-05)
(0 -0 1.433325751e-05)
(0 -0 1.418614274e-05)
(0 -0 1.400562624e-05)
(0 -0 1.379305561e-05)
(0 -0 1.355001273e-05)
(0 -0 1.327825654e-05)
(0 -0 1.297971098e-05)
(0 -0 1.265637382e-05)
(0 -0 1.231049058e-05)
(0 -0 1.194450257e-05)
(0 -0 1.156106607e-05)
(0 -0 1.116276166e-05)
(0 -0 1.07522678e-05)
(0 -0 1.033242413e-05)
(0 -0 9.906168069e-06)
(0 -0 9.476487864e-06)
(0 -0 9.046369108e-06)
(0 -0 8.618749934e-06)
(0 -0 8.196489538e-06)
(0 -0 7.782355118e-06)
(0 -0 7.379026515e-06)
(0 -0 6.989112801e-06)
(0 -0 6.615171277e-06)
(0 -0 6.259718105e-06)
(0 -0 5.925220767e-06)
(0 -0 5.614068168e-06)
(0 -0 5.32852395e-06)
(0 -0 5.070677184e-06)
(0 -0 4.842401557e-06)
(0 -0 4.645323101e-06)
(0 -0 4.480793779e-06)
(0 -0 4.349878878e-06)
(0 -0 4.2533617e-06)
(0 -0 4.191748185e-06)
(0 -0 4.165259111e-06)
(0 -0 4.173831994e-06)
(0 -0 1.016239398e-05)
(0 -0 1.047069826e-05)
(0 -0 1.07821478e-05)
(0 -0 1.106975524e-05)
(0 -0 1.132583038e-05)
(0 -0 1.15472836e-05)
(0 -0 1.173215905e-05)
(0 -0 1.187867687e-05)
(0 -0 1.198527557e-05)
(0 -0 1.20510175e-05)
(0 -0 1.207580596e-05)
(0 -0 1.206016752e-05)
(0 -0 1.200482983e-05)
(0 -0 1.191047704e-05)
(0 -0 1.177780504e-05)
(0 -0 1.160771566e-05)
(0 -0 1.140144373e-05)
(0 -0 1.116055245e-05)
(0 -0 1.088686231e-05)
(0 -0 1.05823722e-05)
(0 -0 1.024921606e-05)
(0 -0 9.889781601e-06)
(0 -0 9.506670833e-06)
(0 -0 9.1026226e-06)
(0 -0 8.680370654e-06)
(0 -0 8.242842202e-06)
(0 -0 7.793095015e-06)
(0 -0 7.334296304e-06)
(0 -0 6.869700219e-06)
(0 -0 6.402606384e-06)
(0 -0 5.936307763e-06)
(0 -0 5.474041113e-06)
(0 -0 5.018949817e-06)
(0 -0 4.574065312e-06)
(0 -0 4.142307262e-06)
(0 -0 3.726496299e-06)
(0 -0 3.329370468e-06)
(0 -0 2.953596113e-06)
(0 -0 2.601763418e-06)
(0 -0 2.27635835e-06)
(0 -0 1.979713183e-06)
(0 -0 1.713952379e-06)
(0 -0 1.480953412e-06)
(0 -0 1.282323012e-06)
(0 -0 1.119371808e-06)
(0 -0 9.93085733e-07)
(0 -0 9.041181431e-07)
(0 -0 8.528102615e-07)
(0 -0 8.392103028e-07)
(0 -0 8.630755556e-07)
(0 -0 7.958799255e-06)
(0 -0 8.288851243e-06)
(0 -0 8.621784866e-06)
(0 -0 8.92858541e-06)
(0 -0 9.200953948e-06)
(0 -0 9.435544485e-06)
(0 -0 9.630248512e-06)
(0 -0 9.783164668e-06)
(0 -0 9.892634035e-06)
(0 -0 9.957670627e-06)
(0 -0 9.978194964e-06)
(0 -0 9.95480158e-06)
(0 -0 9.888310197e-06)
(0 -0 9.779505806e-06)
(0 -0 9.629200606e-06)
(0 -0 9.438440764e-06)
(0 -0 9.20863821e-06)
(0 -0 8.941568862e-06)
(0 -0 8.639252524e-06)
(0 -0 8.303934863e-06)
(0 -0 7.938086453e-06)
(0 -0 7.544426689e-06)
(0 -0 7.125733437e-06)
(0 -0 6.684934866e-06)
(0 -0 6.225144275e-06)
(0 -0 5.749624257e-06)
(0 -0 5.261775686e-06)
(0 -0 4.76511921e-06)
(0 -0 4.26326322e-06)
(0 -0 3.759857147e-06)
(0 -0 3.258532691e-06)
(0 -0 2.762844334e-06)
(0 -0 2.276223095e-06)
(0 -0 1.801952547e-06)
(0 -0 1.343169946e-06)
(0 -0 9.028847756e-07)
(0 -0 4.840004963e-07)
(0 -0 8.932650903e-08)
(0 -0 -2.784273713e-07)
(0 -0 -6.166769e-07)
(0 -0 -9.230097638e-07)
(0 -0 -1.195244121e-06)
(0 -0 -1.431479e-06)
(0 -0 -1.630122943e-06)
(0 -0 -1.789912044e-06)
(0 -0 -1.909934837e-06)
(0 -0 -1.989649786e-06)
(0 -0 -2.02886794e-06)
(0 -0 -2.027718365e-06)
(0 -0 -1.986634947e-06)
(0 -0 6.076081213e-06)
(0 -0 6.428922975e-06)
(0 -0 6.78457338e-06)
(0 -0 7.111946517e-06)
(0 -0 7.402109813e-06)
(0 -0 7.651439396e-06)
(0 -0 7.857653304e-06)
(0 -0 8.018709035e-06)
(0 -0 8.132832086e-06)
(0 -0 8.198970362e-06)
(0 -0 8.217043857e-06)
(0 -0 8.187698774e-06)
(0 -0 8.111831217e-06)
(0 -0 7.990314242e-06)
(0 -0 7.82406581e-06)
(0 -0 7.614267726e-06)
(0 -0 7.362504355e-06)
(0 -0 7.070720649e-06)
(0 -0 6.741195571e-06)
(0 -0 6.376456707e-06)
(0 -0 5.979242659e-06)
(0 -0 5.552390005e-06)
(0 -0 5.098971313e-06)
(0 -0 4.62226632e-06)
(0 -0 4.12573608e-06)
(0 -0 3.613015234e-06)
(0 -0 3.087895384e-06)
(0 -0 2.554294745e-06)
(0 -0 2.016208811e-06)
(0 -0 1.47764516e-06)
(0 -0 9.425519294e-07)
(0 -0 4.147547715e-07)
(0 -0 -1.020848337e-07)
(0 -0 -6.044827755e-07)
(0 -0 -1.089116981e-06)
(0 -0 -1.552795083e-06)
(0 -0 -1.992426475e-06)
(0 -0 -2.405017336e-06)
(0 -0 -2.787691941e-06)
(0 -0 -3.137729585e-06)
(0 -0 -3.452609179e-06)
(0 -0 -3.730064738e-06)
(0 -0 -3.968149195e-06)
(0 -0 -4.165283622e-06)
(0 -0 -4.320273857e-06)
(0 -0 -4.432309308e-06)
(0 -0 -4.500963533e-06)
(0 -0 -4.526186116e-06)
(0 -0 -4.508279723e-06)
(0 -0 -4.447889461e-06)
(0 -0 4.471731288e-06)
(0 -0 4.848186075e-06)
(0 -0 5.227511899e-06)
(0 -0 5.576524418e-06)
(0 -0 5.88563824e-06)
(0 -0 6.150932679e-06)
(0 -0 6.369934831e-06)
(0 -0 6.540446042e-06)
(0 -0 6.660562353e-06)
(0 -0 6.729152766e-06)
(0 -0 6.746123351e-06)
(0 -0 6.712159148e-06)
(0 -0 6.628221204e-06)
(0 -0 6.495261625e-06)
(0 -0 6.314297806e-06)
(0 -0 6.086636989e-06)
(0 -0 5.814012404e-06)
(0 -0 5.498593022e-06)
(0 -0 5.14288959e-06)
(0 -0 4.749614022e-06)
(0 -0 4.321673249e-06)
(0 -0 3.862225663e-06)
(0 -0 3.374681e-06)
(0 -0 2.862693444e-06)
(0 -0 2.330135137e-06)
(0 -0 1.781060197e-06)
(0 -0 1.219660617e-06)
(0 -0 6.502166148e-07)
(0 -0 7.70419539e-08)
(0 -0 -4.955751084e-07)
(0 -0 -1.063430765e-06)
(0 -0 -1.622456459e-06)
(0 -0 -2.16875198e-06)
(0 -0 -2.698594006e-06)
(0 -0 -3.208420801e-06)
(0 -0 -3.694802904e-06)
(0 -0 -4.154418546e-06)
(0 -0 -4.584054369e-06)
(0 -0 -4.980638449e-06)
(0 -0 -5.341292347e-06)
(0 -0 -5.663382992e-06)
(0 -0 -5.944573001e-06)
(0 -0 -6.18288153e-06)
(0 -0 -6.376744398e-06)
(0 -0 -6.525038802e-06)
(0 -0 -6.627067454e-06)
(0 -0 -6.682538784e-06)
(0 -0 -6.691561797e-06)
(0 -0 -6.654634509e-06)
(0 -0 -6.572627812e-06)
(0 -0 3.11293544e-06)
(0 -0 3.51364325e-06)
(0 -0 3.917373339e-06)
(0 -0 4.288838945e-06)
(0 -0 4.61778896e-06)
(0 -0 4.899988724e-06)
(0 -0 5.132757424e-06)
(0 -0 5.313727026e-06)
(0 -0 5.440854315e-06)
(0 -0 5.512918867e-06)
(0 -0 5.52980251e-06)
(0 -0 5.492218768e-06)
(0 -0 5.401186017e-06)
(0 -0 5.257730255e-06)
(0 -0 5.06295424e-06)
(0 -0 4.818286695e-06)
(0 -0 4.525626343e-06)
(0 -0 4.187325221e-06)
(0 -0 3.806031898e-06)
(0 -0 3.384678956e-06)
(0 -0 2.926480228e-06)
(0 -0 2.434950764e-06)
(0 -0 1.913905034e-06)
(0 -0 1.36741914e-06)
(0 -0 7.997644878e-07)
(0 -0 2.153440771e-07)
(0 -0 -3.813544082e-07)
(0 -0 -9.857884886e-07)
(0 -0 -1.593385323e-06)
(0 -0 -2.199577109e-06)
(0 -0 -2.799853114e-06)
(0 -0 -3.389818818e-06)
(0 -0 -3.965243524e-06)
(0 -0 -4.522082586e-06)
(0 -0 -5.056474344e-06)
(0 -0 -5.564721913e-06)
(0 -0 -6.043273431e-06)
(0 -0 -6.48871625e-06)
(0 -0 -6.897800178e-06)
(0 -0 -7.267493441e-06)
(0 -0 -7.595053261e-06)
(0 -0 -7.878088348e-06)
(0 -0 -8.11461107e-06)
(0 -0 -8.303085207e-06)
(0 -0 -8.442451967e-06)
(0 -0 -8.532117917e-06)
(0 -0 -8.571932774e-06)
(0 -0 -8.562186369e-06)
(0 -0 -8.503602291e-06)
(0 -0 -8.397306197e-06)
(0 -0 1.974110476e-06)
(0 -0 2.399598531e-06)
(0 -0 2.828260243e-06)
(0 -0 3.222776296e-06)
(0 -0 3.572225725e-06)
(0 -0 3.872042964e-06)
(0 -0 4.119322332e-06)
(0 -0 4.311513407e-06)
(0 -0 4.446424776e-06)
(0 -0 4.522738988e-06)
(0 -0 4.540306282e-06)
(0 -0 4.499861514e-06)
(0 -0 4.402473889e-06)
(0 -0 4.249229418e-06)
(0 -0 4.041319418e-06)
(0 -0 3.780281782e-06)
(0 -0 3.468141976e-06)
(0 -0 3.107380836e-06)
(0 -0 2.700884549e-06)
(0 -0 2.251888444e-06)
(0 -0 1.763970433e-06)
(0 -0 1.241045026e-06)
(0 -0 6.873157142e-07)
(0 -0 1.071998329e-07)
(0 -0 -4.947478717e-07)
(0 -0 -1.113878273e-06)
(0 -0 -1.745453945e-06)
(0 -0 -2.384642195e-06)
(0 -0 -3.026524893e-06)
(0 -0 -3.666144798e-06)
(0 -0 -4.29858587e-06)
(0 -0 -4.919062391e-06)
(0 -0 -5.522985385e-06)
(0 -0 -6.105989156e-06)
(0 -0 -6.66392443e-06)
(0 -0 -7.192838178e-06)
(0 -0 -7.688956089e-06)
(0 -0 -8.148674767e-06)
(0 -0 -8.568575201e-06)
(0 -0 -8.945474346e-06)
(0 -0 -9.276511586e-06)
(0 -0 -9.559234648e-06)
(0 -0 -9.791653038e-06)
(0 -0 -9.972266341e-06)
(0 -0 -1.010008361e-05)
(0 -0 -1.01746237e-05)
(0 -0 -1.019589735e-05)
(0 -0 -1.016439603e-05)
(0 -0 -1.00810806e-05)
(0 -0 -9.947344858e-06)
(0 -0 1.035158089e-06)
(0 -0 1.485819244e-06)
(0 -0 1.93975084e-06)
(0 -0 2.357744938e-06)
(0 -0 2.728171218e-06)
(0 -0 3.046126323e-06)
(0 -0 3.308467189e-06)
(0 -0 3.512447881e-06)
(0 -0 3.655720822e-06)
(0 -0 3.736867268e-06)
(0 -0 3.755701171e-06)
(0 -0 3.712972571e-06)
(0 -0 3.609790312e-06)
(0 -0 3.447299746e-06)
(0 -0 3.226758101e-06)
(0 -0 2.949778872e-06)
(0 -0 2.618514485e-06)
(0 -0 2.23566691e-06)
(0 -0 1.804413136e-06)
(0 -0 1.328336012e-06)
(0 -0 8.113780027e-07)
(0 -0 2.577893354e-07)
(0 -0 -3.279434898e-07)
(0 -0 -9.411641213e-07)
(0 -0 -1.577081932e-06)
(0 -0 -2.2307705e-06)
(0 -0 -2.897147644e-06)
(0 -0 -3.570972707e-06)
(0 -0 -4.246885482e-06)
(0 -0 -4.919488194e-06)
(0 -0 -5.583451829e-06)
(0 -0 -6.23361668e-06)
(0 -0 -6.865059727e-06)
(0 -0 -7.473116343e-06)
(0 -0 -8.053364213e-06)
(0 -0 -8.601593518e-06)
(0 -0 -9.113787969e-06)
(0 -0 -9.586126298e-06)
(0 -0 -1.001500465e-05)
(0 -0 -1.039708778e-05)
(0 -0 -1.07293966e-05)
(0 -0 -1.100940639e-05)
(0 -0 -1.123510962e-05)
(0 -0 -1.140503755e-05)
(0 -0 -1.151827454e-05)
(0 -0 -1.157447038e-05)
(0 -0 -1.157382494e-05)
(0 -0 -1.151705811e-05)
(0 -0 -1.140538717e-05)
(0 -0 -1.124049569e-05)
(0 -0 2.741453152e-07)
(0 -0 7.532204329e-07)
(0 -0 1.235122349e-06)
(0 -0 1.677335019e-06)
(0 -0 2.069021292e-06)
(0 -0 2.405444496e-06)
(0 -0 2.6832255e-06)
(0 -0 2.899395926e-06)
(0 -0 3.051444329e-06)
(0 -0 3.137848845e-06)
(0 -0 3.158382599e-06)
(0 -0 3.113804308e-06)
(0 -0 3.005258351e-06)
(0 -0 2.833925505e-06)
(0 -0 2.601106773e-06)
(0 -0 2.308524857e-06)
(0 -0 1.958515938e-06)
(0 -0 1.554040964e-06)
(0 -0 1.09858557e-06)
(0 -0 5.960482914e-07)
(0 -0 5.065511286e-08)
(0 -0 -5.33102754e-07)
(0 -0 -1.150513377e-06)
(0 -0 -1.796669558e-06)
(0 -0 -2.466467283e-06)
(0 -0 -3.154593727e-06)
(0 -0 -3.855526783e-06)
(0 -0 -4.563566595e-06)
(0 -0 -5.272907723e-06)
(0 -0 -5.977740405e-06)
(0 -0 -6.672357616e-06)
(0 -0 -7.351246744e-06)
(0 -0 -8.009151613e-06)
(0 -0 -8.641096431e-06)
(0 -0 -9.242371412e-06)
(0 -0 -9.808495769e-06)
(0 -0 -1.033518949e-05)
(0 -0 -1.081838128e-05)
(0 -0 -1.125425302e-05)
(0 -0 -1.16393052e-05)
(0 -0 -1.197043807e-05)
(0 -0 -1.22450441e-05)
(0 -0 -1.246108248e-05)
(0 -0 -1.261711277e-05)
(0 -0 -1.271230911e-05)
(0 -0 -1.274647083e-05)
(0 -0 -1.272000489e-05)
(0 -0 -1.263387837e-05)
(0 -0 -1.248958685e-05)
(0 -0 -1.228914487e-05)
(0 -0 -3.120110364e-07)
(0 -0 1.913310627e-07)
(0 -0 7.002000571e-07)
(0 -0 1.167576847e-06)
(0 -0 1.581167841e-06)
(0 -0 1.936310178e-06)
(0 -0 2.229728187e-06)
(0 -0 2.458324693e-06)
(0 -0 2.61941759e-06)
(0 -0 2.711372247e-06)
(0 -0 2.733917776e-06)
(0 -0 2.687814988e-06)
(0 -0 2.574221907e-06)
(0 -0 2.394347224e-06)
(0 -0 2.149567142e-06)
(0 -0 1.841738258e-06)
(0 -0 1.473407107e-06)
(0 -0 1.047798713e-06)
(0 -0 5.686705593e-07)
(0 -0 4.01663642e-08)
(0 -0 -5.332716205e-07)
(0 -0 -1.146934075e-06)
(0 -0 -1.795846733e-06)
(0 -0 -2.474770087e-06)
(0 -0 -3.178200081e-06)
(0 -0 -3.900380627e-06)
(0 -0 -4.635336538e-06)
(0 -0 -5.376929767e-06)
(0 -0 -6.118941652e-06)
(0 -0 -6.855173332e-06)
(0 -0 -7.579546658e-06)
(0 -0 -8.286189295e-06)
(0 -0 -8.96949399e-06)
(0 -0 -9.624146768e-06)
(0 -0 -1.024512083e-05)
(0 -0 -1.082764105e-05)
(0 -0 -1.1367147e-05)
(0 -0 -1.185929708e-05)
(0 -0 -1.230002979e-05)
(0 -0 -1.268565244e-05)
(0 -0 -1.301292518e-05)
(0 -0 -1.327914339e-05)
(0 -0 -1.34822213e-05)
(0 -0 -1.362074843e-05)
(0 -0 -1.369400477e-05)
(0 -0 -1.37019582e-05)
(0 -0 -1.364523873e-05)
(0 -0 -1.352507464e-05)
(0 -0 -1.334325892e-05)
(0 -0 -1.310220398e-05)
(0 -0 -7.300080145e-07)
(0 -0 -2.061875602e-07)
(0 -0 3.258180034e-07)
(0 -0 8.173262584e-07)
(0 -0 1.253022843e-06)
(0 -0 1.627136495e-06)
(0 -0 1.936308782e-06)
(0 -0 2.177424451e-06)
(0 -0 2.347693433e-06)
(0 -0 2.445373524e-06)
(0 -0 2.470138952e-06)
(0 -0 2.422739714e-06)
(0 -0 2.30434821e-06)
(0 -0 2.116210965e-06)
(0 -0 1.859785019e-06)
(0 -0 1.537077578e-06)
(0 -0 1.15084401e-06)
(0 -0 7.045392638e-07)
(0 -0 2.021429076e-07)
(0 -0 -3.519922066e-07)
(0 -0 -9.532057609e-07)
(0 -0 -1.596528356e-06)
(0 -0 -2.27666227e-06)
(0 -0 -2.98798114e-06)
(0 -0 -3.724554905e-06)
(0 -0 -4.480191627e-06)
(0 -0 -5.248490347e-06)
(0 -0 -6.022903237e-06)
(0 -0 -6.796811433e-06)
(0 -0 -7.563618698e-06)
(0 -0 -8.316854664e-06)
(0 -0 -9.050266869e-06)
(0 -0 -9.75788184e-06)
(0 -0 -1.04340291e-05)
(0 -0 -1.107333425e-05)
(0 -0 -1.167069162e-05)
(0 -0 -1.222123445e-05)
(0 -0 -1.272033563e-05)
(0 -0 -1.31636678e-05)
(0 -0 -1.354730731e-05)
(0 -0 -1.386783595e-05)
(0 -0 -1.412242897e-05)
(0 -0 -1.430894617e-05)
(0 -0 -1.442600683e-05)
(0 -0 -1.447300435e-05)
(0 -0 -1.445010519e-05)
(0 -0 -1.435818126e-05)
(0 -0 -1.419878309e-05)
(0 -0 -1.397414551e-05)
(0 -0 -1.368702263e-05)
(0 -0 -1.000238058e-06)
(0 -0 -4.520532973e-07)
(0 -0 1.03608865e-07)
(0 -0 6.178591954e-07)
(0 -0 1.074918546e-06)
(0 -0 1.467868189e-06)
(0 -0 1.792770304e-06)
(0 -0 2.046382188e-06)
(0 -0 2.225840334e-06)
(0 -0 2.329312981e-06)
(0 -0 2.356418381e-06)