/*--------------------------------*- C++ -*----------------------------------*\
| =========                 |                                                 |
| \\      /  F ield         | foam-extend: Open Source CFD                    |
|  \\    /   O peration     | Version:     4.1                                |
|   \\  /    A nd           | Web:         http://www.foam-extend.org         |
|    \\/     M anipulation  |                                                 |
\*---------------------------------------------------------------------------*/
FoamFile
{
    version     2.0;
    format      ascii;
    class       regIOobject;
    location    "80000/uniform";
    object      profilingInfo;
}
// * * * * * * * * * * * * * * * * * * * * * * * * * * * * * * * * * * * * * //

profilingInfo
(

    {
        id              13;
        parentId        11;
        description     "Foam::Time::writeObject - outputTime";
        calls           8;
        totalTime       2.023291;
        childTime       0;
        onStack         1;
    }

    {
        id              11;
        parentId        1;
        description     "Foam::Time::writeObject";
        calls           8000;
        totalTime       2.054725;
        childTime       2.023291;
        onStack         1;
    }

    {
        id              1;
        description     "application::main";
        calls           1;
        totalTime       554.747383;
        childTime       458.887073;
        onStack         1;
    }

    {
        id              12;
        parentId        1;
        description     "FO::FFT_probes::execute";
        calls           7999;
        totalTime       1.470794;
        childTime       0;
        onStack         0;
    }

    {
        id              3;
        parentId        2;
        description     "FO::FFT_probes::start";
        calls           1;
        totalTime       3.096156;
        childTime       0;
        onStack         0;
    }

    {
        id              2;
        parentId        1;
        description     "functionObjectList::read";
        calls           1;
        totalTime       3.249794;
        childTime       3.096156;
        onStack         0;
    }

    {
        id              9;
        parentId        1;
        description     "fvMatrix::solve_T";
        calls           8000;
        totalTime       6.171012;
        childTime       3.342942;
        onStack         0;
    }

    {
        id              4;
        parentId        1;
        description     "fvMatrix::solve_U";
        calls           8000;
        totalTime       31.205189;
        childTime       24.202664;
        onStack         0;
    }

    {
        id              7;
        parentId        1;
        description     "fvMatrix::solve_p";
        calls           16000;
        totalTime       414.735559;
        childTime       408.071595;
        onStack         0;
    }

    {
        id              10;
        parentId        9;
        description     "lduMatrix::solver_T";
        calls           8000;
        totalTime       3.342942;
        childTime       0;
        onStack         0;
    }

    {
        id              5;
        parentId        4;
        description     "lduMatrix::solver_Ux";
        calls           8000;
        totalTime       11.374874;
        childTime       0;
        onStack         0;
    }

    {
        id              6;
        parentId        4;
        description     "lduMatrix::solver_Uy";
        calls           8000;
        totalTime       12.82779;
        childTime       0;
        onStack         0;
    }

    {
        id              8;
        parentId        7;
        description     "lduMatrix::solver_p";
        calls           16000;
        totalTime       408.071595;
        childTime       0;
        onStack         0;
    }
);


// ************************************************************************* //
