/*--------------------------------*- C++ -*----------------------------------*\
| =========                 |                                                 |
| \\      /  F ield         | foam-extend: Open Source CFD                    |
|  \\    /   O peration     | Version:     4.1                                |
|   \\  /    A nd           | Web:         http://www.foam-extend.org         |
|    \\/     M anipulation  |                                                 |
\*---------------------------------------------------------------------------*/
FoamFile
{
    version     2.0;
    format      ascii;
    class       volScalarField;
    location    "100000";
    object      p;
}
// * * * * * * * * * * * * * * * * * * * * * * * * * * * * * * * * * * * * * //

dimensions      [0 2 -2 0 0 0 0];

internalField   nonuniform List<scalar> 
15920
(
2.025420854e-08
1.742966326e-08
1.523963059e-08
1.412333633e-08
1.332830794e-08
1.250861788e-08
1.171180696e-08
1.101583452e-08
1.042409482e-08
9.914941691e-09
9.477374598e-09
9.10793772e-09
8.801574996e-09
8.550201564e-09
8.344808803e-09
8.176795721e-09
8.038252269e-09
7.922035945e-09
7.821904962e-09
7.732605048e-09
7.64985266e-09
7.570249086e-09
7.491168662e-09
7.410641923e-09
7.327239996e-09
7.239970302e-09
7.148184752e-09
7.051500304e-09
6.949733003e-09
6.842845186e-09
6.73090434e-09
6.614051951e-09
6.492480727e-09
6.366418494e-09
6.23611706e-09
6.101844689e-09
5.963881281e-09
5.822515748e-09
5.678045263e-09
5.530775916e-09
5.381024086e-09
5.22911783e-09
5.075397758e-09
4.920217271e-09
4.763942448e-09
4.606952046e-09
4.449637751e-09
4.292404238e-09
4.135668309e-09
3.979856934e-09
1.495108689e-08
1.460123288e-08
1.403511417e-08
1.350934128e-08
1.300163707e-08
1.243102216e-08
1.182314572e-08
1.123351969e-08
1.068800732e-08
1.019281233e-08
9.751801844e-09
9.368475485e-09
9.04246937e-09
8.76913377e-09
8.541454826e-09
8.351845455e-09
8.192947122e-09
8.057933258e-09
7.94071419e-09
7.83607313e-09
7.739692132e-09
7.648093536e-09
7.558544882e-09
7.468957062e-09
7.377757769e-09
7.283804902e-09
7.186307653e-09
7.08475049e-09
6.978828667e-09
6.868396616e-09
6.753427409e-09
6.633981522e-09
6.510183212e-09
6.382202962e-09
6.250244688e-09
6.114536784e-09
5.975326318e-09
5.832875821e-09
5.687462012e-09
5.539375686e-09
5.388922028e-09
5.23642088e-09
5.082206731e-09
4.926628458e-09
4.7700489e-09
4.612844446e-09
4.455404825e-09
4.298133205e-09
4.141445636e-09
3.985768785e-09
1.442485171e-08
1.426258847e-08
1.382250799e-08
1.326581114e-08
1.272948445e-08
1.221652323e-08
1.170743937e-08
1.12137733e-08
1.075277847e-08
1.033092609e-08
9.948634492e-09
9.605954864e-09
9.302464653e-09
9.036023544e-09
8.80314135e-09
8.599757862e-09
8.421666156e-09
8.264655452e-09
8.124637712e-09
7.997797974e-09
7.880707752e-09
7.770377683e-09
7.664265002e-09
7.560259188e-09
7.456682027e-09
7.352220544e-09
7.245862172e-09
7.136849503e-09
7.024640578e-09
6.908870684e-09
6.789318013e-09
6.665874875e-09
6.538524187e-09
6.407320404e-09
6.272374267e-09
6.133841012e-09
5.991911788e-09
5.846807821e-09
5.698776728e-09
5.548090221e-09
5.395042538e-09
5.239949191e-09
5.083145884e-09
4.924987607e-09
4.76584788e-09
4.606117666e-09
4.446203263e-09
4.286525022e-09
4.127516031e-09
3.96962044e-09
1.343071324e-08
1.328863133e-08
1.300647927e-08
1.264918101e-08
1.22769476e-08
1.190141121e-08
1.151637581e-08
1.112885771e-08
1.075341922e-08
1.039938749e-08
1.007006481e-08
9.766824837e-09
9.490528695e-09
9.240959522e-09
9.016654427e-09
8.815314028e-09
8.634210982e-09
8.470423912e-09
8.320985872e-09
8.183020663e-09
8.053855814e-09
7.931091861e-09
7.812632742e-09
7.696692396e-09
7.58178576e-09
7.466697501e-09
7.350449475e-09
7.232274221e-09
7.111588765e-09
6.987967103e-09
6.861114196e-09
6.730843514e-09
6.597058439e-09
6.459737128e-09
6.318920485e-09
6.174702768e-09
6.027224352e-09
5.87666614e-09
5.723245287e-09
5.567212026e-09
5.408847351e-09
5.248461396e-09
5.08639206e-09
4.923003474e-09
4.758684324e-09
4.593846242e-09
4.42892209e-09
4.264362139e-09
4.10063068e-09
3.938203337e-09
1.279133708e-08
1.272121763e-08
1.255146357e-08
1.230337674e-08
1.201502164e-08
1.17079066e-08
1.138880944e-08
1.106434925e-08
1.074418204e-08
1.043624035e-08
1.014476729e-08
9.871846573e-09
9.618673673e-09
9.385598398e-09
9.171976246e-09
8.976378553e-09
8.796927703e-09
8.631529287e-09
8.478004234e-09
8.334187976e-09
8.198015415e-09
8.06758116e-09
7.941172362e-09
7.817281532e-09
7.694606935e-09
7.572044592e-09
7.44867464e-09
7.323745731e-09
7.196658115e-09
7.066945759e-09
6.934258996e-09
6.798348842e-09
6.659053757e-09
6.51628878e-09
6.370036732e-09
6.220341117e-09
6.067300263e-09
5.911062238e-09
5.75182042e-09
5.589810309e-09
5.425307279e-09
5.258625106e-09
5.09011452e-09
4.920161185e-09
4.749183033e-09
4.577627393e-09
4.405967821e-09
4.234700209e-09
4.06433885e-09
3.895412105e-09
1.230270341e-08
1.225332379e-08
1.212974472e-08
1.194201696e-08
1.171637152e-08
1.147084285e-08
1.121282961e-08
1.094722054e-08
1.068038167e-08
1.04185468e-08
1.01659868e-08
9.925176279e-09
9.697585236e-09
9.483969329e-09
9.284352589e-09
9.098112668e-09
8.924180298e-09
8.761216194e-09
8.607725954e-09
8.462144229e-09
8.322908204e-09
8.188517088e-09
8.057572622e-09
7.928803056e-09
7.801075622e-09
7.673400715e-09
7.544929173e-09
7.414944957e-09
7.28285585e-09
7.148183249e-09
7.010551204e-09
6.869675665e-09
6.725355812e-09
6.577466822e-09
6.425953632e-09
6.270825619e-09
6.112152063e-09
5.950058059e-09
5.784720336e-09
5.616364142e-09
5.445262564e-09
5.271735969e-09
5.096150134e-09
4.918913956e-09
4.74047646e-09
4.561322791e-09
4.381970069e-09
4.202964674e-09
4.024876196e-09
3.848292334e-09
1.191697465e-08
1.187987826e-08
1.178816649e-08
1.16471158e-08
1.147290413e-08
1.127775483e-08
1.106794669e-08
1.084802493e-08
1.062316794e-08
1.039851018e-08
1.017798001e-08
9.964156519e-09
9.758701604e-09
9.562639413e-09
9.376406125e-09
9.199893782e-09
9.032568266e-09
8.873602629e-09
8.721980126e-09
8.576570797e-09
8.436195369e-09
8.299678644e-09
8.165889626e-09
8.033768763e-09
7.902345346e-09
7.770747414e-09
7.638205351e-09
7.504051499e-09
7.367716735e-09
7.228725429e-09
7.086688907e-09
6.941299948e-09
6.792328981e-09
6.639618907e-09
6.483081338e-09
6.32269342e-09
6.158495722e-09
5.990590564e-09
5.819137802e-09
5.64435201e-09
5.466502897e-09
5.285916043e-09
5.102971086e-09
4.918099352e-09
4.731781104e-09
4.544541806e-09
4.356943799e-09
4.169587395e-09
3.98310237e-09
3.798140782e-09
1.16098009e-08
1.158153189e-08
1.151142588e-08
1.140210886e-08
1.126405794e-08
1.110583063e-08
1.093263114e-08
1.074855409e-08
1.055784167e-08
1.03645724e-08
1.017204447e-08
9.982633923e-09
9.797993755e-09
9.619232075e-09
9.446972877e-09
9.281393828e-09
9.122302116e-09
8.969229138e-09
8.821512563e-09
8.678359782e-09
8.538900153e-09
8.402229519e-09
8.267446393e-09
8.13367882e-09
8.000104016e-09
7.865962275e-09
7.730563306e-09
7.593290612e-09
7.453603464e-09
7.311041367e-09
7.165209775e-09
7.015785299e-09
6.862520457e-09
6.705235832e-09
6.543818017e-09
6.378219999e-09
6.208459588e-09
6.034617356e-09
5.856838196e-09
5.675332209e-09
5.490373312e-09
5.302297561e-09
5.111502917e-09
4.918447605e-09
4.723646428e-09
4.52766587e-09
4.331123418e-09
4.134677228e-09
3.939022083e-09
3.744882756e-09
1.136262337e-08
1.134032193e-08
1.128491547e-08
1.119786023e-08
1.108650801e-08
1.095697347e-08
1.081320181e-08
1.065847206e-08
1.049614927e-08
1.032946743e-08
1.016115265e-08
9.993307409e-09
9.82749069e-09
9.664814391e-09
9.50599176e-09
9.351370842e-09
9.200985561e-09
9.054620165e-09
8.911870179e-09
8.772193008e-09
8.634950888e-09
8.499448446e-09
8.364965805e-09
8.230784411e-09
8.096204828e-09
7.960563187e-09
7.823240844e-09
7.683671082e-09
7.541329023e-09
7.395783158e-09
7.246639066e-09
7.093565312e-09
6.936293961e-09
6.774623596e-09
6.60841895e-09
6.437610726e-09
6.262196352e-09
6.082240872e-09
5.897878785e-09
5.709315881e-09
5.516829109e-09
5.320766074e-09
5.121545074e-09
4.919654285e-09
4.71564948e-09
4.510149935e-09
4.303832072e-09
4.097421793e-09
3.891691136e-09
3.68745005e-09
1.11626692e-08
1.114466122e-08
1.109992447e-08
1.102932409e-08
1.09382263e-08
1.083102419e-08
1.071058763e-08
1.057944954e-08
1.044029209e-08
1.029572273e-08
1.014799133e-08
9.998905308e-09
9.849867789e-09
9.701928091e-09
9.555811515e-09
9.411944189e-09
9.270488377e-09
9.131386611e-09
8.99440588e-09
8.859177047e-09
8.725229859e-09
8.592023593e-09
8.458975156e-09
8.325488096e-09
8.190971418e-09
8.054831728e-09
7.91650217e-09
7.775458242e-09
7.631229577e-09
7.483354083e-09
7.331443814e-09
7.175164093e-09
7.014232789e-09
6.848427379e-09
6.677589122e-09
6.501625422e-09
6.320512442e-09
6.134298122e-09
5.943105463e-09
5.747135309e-09
5.546668489e-09
5.342066775e-09
5.133772639e-09
4.922308319e-09
4.708274583e-09
4.492347931e-09
4.275274498e-09
4.057861196e-09
3.84096682e-09
3.625494569e-09
1.100082349e-08
1.098603073e-08
1.094927689e-08
1.089107523e-08
1.081546849e-08
1.072568792e-08
1.062382457e-08
1.051181384e-08
1.039177947e-08
1.026581358e-08
1.013574832e-08
1.000309648e-08
9.869075222e-09
9.734630711e-09
9.60045093e-09
9.466980374e-09
9.334443878e-09
9.202876884e-09
9.072157009e-09
8.942033241e-09
8.8121542e-09
8.682092487e-09
8.551367618e-09
8.419463683e-09
8.285880969e-09
8.150087658e-09
8.011551924e-09
7.869776259e-09
7.724295028e-09
7.574666863e-09
7.420495345e-09
7.26143021e-09
7.097169383e-09
6.927465646e-09
6.752132883e-09
6.571051134e-09
6.384171657e-09
6.191522141e-09
5.993211488e-09
5.789434001e-09
5.580473162e-09
5.366704523e-09
5.148596855e-09
4.926711342e-09
4.701699875e-09
4.474303103e-09
4.245346208e-09
4.015729574e-09
3.786415797e-09
3.558417666e-09
1.087026951e-08
1.085793912e-08
1.082729904e-08
1.077864995e-08
1.071512644e-08
1.063916267e-08
1.055228598e-08
1.045595514e-08
1.035183184e-08
1.024158274e-08
1.012668906e-08
1.000840049e-08
9.887750741e-09
9.765568094e-09
9.642476809e-09
9.518903578e-09
9.395092599e-09
9.271125194e-09
9.14694296e-09
9.022370554e-09
8.897135684e-09
8.770878053e-09
8.643210763e-09
8.513689314e-09
8.381813824e-09
8.247103863e-09
8.109082657e-09
7.967266328e-09
7.821184517e-09
7.670393875e-09
7.514482624e-09
7.353076612e-09
7.185845874e-09
7.012511608e-09
6.832853548e-09
6.646717498e-09
6.454023072e-09
6.254771331e-09
6.049051698e-09
5.83704777e-09
5.619042348e-09
5.395422177e-09
5.166681888e-09
4.933425459e-09
4.696364344e-09
4.456313684e-09
4.21418756e-09
3.970991072e-09
3.727807178e-09
3.485780624e-09
1.076578596e-08
1.075538492e-08
1.072953653e-08
1.068840894e-08
1.063448655e-08
1.056963781e-08
1.049498116e-08
1.04116085e-08
1.032081374e-08
1.022392099e-08
1.012212254e-08
1.00164401e-08
9.907735706e-09
9.796715555e-09
9.683924968e-09
9.5697486e-09
9.454420433e-09
9.338036459e-09
9.220565483e-09
9.101869222e-09
8.981727812e-09
8.859850765e-09
8.735861276e-09
8.609350409e-09
8.479869141e-09
8.346958647e-09
8.210148504e-09
8.068956354e-09
7.922905085e-09
7.771534478e-09
7.614406882e-09
7.451114988e-09
7.281290369e-09
7.10461203e-09
6.92081557e-09
6.729702871e-09
6.531152057e-09
6.32512754e-09
6.111689733e-09
5.891003663e-09
5.663346153e-09
5.429112143e-09
5.188820777e-09
4.943119888e-09
4.692786252e-09
4.438721052e-09
4.181942794e-09
3.923578248e-09
3.664849204e-09
3.407054807e-09
1.068328542e-08
1.067442811e-08
1.065241335e-08
1.061732376e-08
1.057116297e-08
1.051538939e-08
1.045082596e-08
1.037828753e-08
1.029877873e-08
1.021334767e-08
1.012294785e-08
1.002840582e-08
9.930428892e-09
9.82960517e-09
9.726396559e-09
9.621134877e-09
9.514020071e-09
9.405141985e-09
9.294482366e-09
9.181920852e-09
9.067247313e-09
8.950187723e-09
8.830402042e-09
8.707501009e-09
8.581055767e-09
8.450606199e-09
8.315671985e-09
8.175760296e-09
8.030374327e-09
7.879023155e-09
7.721230507e-09
7.556543517e-09
7.384542249e-09
7.204850008e-09
7.017144593e-09
6.821170282e-09
6.616750104e-09
6.403798237e-09
6.1823326e-09
5.952487244e-09
5.714523467e-09
5.468839003e-09
5.215975754e-09
4.95662618e-09
4.691636256e-09
4.422002722e-09
4.14886536e-09
3.873495864e-09
3.597281927e-09
3.321705591e-09
1.061950076e-08
1.061190271e-08
1.059301504e-08
1.056286441e-08
1.052308949e-08
1.047484494e-08
1.041873812e-08
1.035537498e-08
1.028553411e-08
1.021004287e-08
1.012965901e-08
1.004504422e-08
9.956770094e-09
9.865316427e-09
9.771057374e-09
9.674275173e-09
9.575132063e-09
9.473685032e-09
9.369902038e-09
9.263665871e-09
9.154776214e-09
9.042962668e-09
8.927891958e-09
8.809175683e-09
8.686380147e-09
8.559034708e-09
8.426640883e-09
8.288679543e-09
8.144618643e-09
7.993922762e-09
7.836062656e-09
7.670524862e-09
7.496822292e-09
7.314506105e-09
7.123178977e-09
6.922509543e-09
6.712247463e-09
6.492238724e-09
6.262441422e-09
6.022942204e-09
5.773972371e-09
5.515921732e-09
5.249349432e-09
4.974992458e-09
4.693771195e-09
4.406788942e-09
4.115324238e-09
3.820818165e-09
3.524856413e-09
3.22914304e-09
1.0571769e-08
1.056521812e-08
1.054893012e-08
1.052289397e-08
1.048846525e-08
1.044657033e-08
1.039765871e-08
1.034217752e-08
1.028072718e-08
1.021395865e-08
1.014247219e-08
1.006679331e-08
9.98737574e-09
9.904602052e-09
9.818778325e-09
9.730106276e-09
9.638709901e-09
9.544621553e-09
9.447788663e-09
9.348079619e-09
9.245285266e-09
9.139125825e-09
9.029258372e-09
8.915283209e-09
8.796750489e-09
8.673166663e-09
8.544001439e-09
8.408695046e-09
8.266665949e-09
8.117319562e-09
7.960057796e-09
7.794289522e-09
7.61944235e-09
7.434975919e-09
7.240396839e-09
7.035275447e-09
6.819264177e-09
6.592116945e-09
6.353709146e-09
6.104058505e-09
5.843346564e-09
5.571938766e-09
5.290400558e-09
4.999509426e-09
4.700263697e-09
4.393885531e-09
4.081814235e-09
3.765690942e-09
3.447337247e-09
3.128725124e-09
1.053787731e-08
1.053221459e-08
1.051813235e-08
1.049559157e-08
1.046572128e-08
1.042926985e-08
1.038657202e-08
1.033795876e-08
1.028389295e-08
1.022488529e-08
1.016140089e-08
1.009385717e-08
1.002261106e-08
9.947958411e-09
9.870127305e-09
9.789269344e-09
9.705462629e-09
9.618706068e-09
9.528919596e-09
9.435947841e-09
9.339562839e-09
9.239467611e-09
9.135300814e-09
9.026640916e-09
8.913010337e-09
8.793880423e-09
8.668677264e-09
8.536788023e-09
8.397567807e-09
8.250347614e-09
8.094443685e-09
7.929168503e-09
7.75384359e-09
7.567814114e-09
7.370465405e-09
7.161241945e-09
6.939669326e-09
6.705378701e-09
6.458132427e-09
6.197850294e-09
5.924636921e-09
5.638809533e-09
5.340922369e-09
5.031784671e-09
4.712473211e-09
4.384339666e-09
4.049008095e-09
3.708358825e-09
3.36450099e-09
3.019734299e-09
1.051595223e-08
1.051105307e-08
1.049887963e-08
1.047935411e-08
1.045343559e-08
1.042172889e-08
1.038449255e-08
1.034195217e-08
1.029447857e-08
1.024246676e-08
1.018628615e-08
1.012624929e-08
1.00626285e-08
9.995649021e-09
9.925477826e-09
9.852217012e-09
9.775899661e-09
9.696488083e-09
9.613872366e-09
9.527871224e-09
9.43823316e-09
9.344637811e-09
9.246697875e-09
9.143961316e-09
9.035913993e-09
8.921983011e-09
8.801540782e-09
8.67390981e-09
8.538368443e-09
8.394158045e-09
8.240491894e-09
8.076566081e-09
7.901572722e-09
7.714715712e-09
7.515229114e-09
7.302398643e-09
7.075587058e-09
6.834263881e-09
6.578038286e-09
6.306693082e-09
6.020219281e-09
5.718852064e-09
5.403106062e-09
5.073804487e-09
4.732099328e-09
4.379483734e-09
4.017793901e-09
3.649194124e-09
3.276143972e-09
2.901349532e-09
1.050438355e-08
1.050008573e-08
1.048963999e-08
1.047277277e-08
1.04503367e-08
1.042285426e-08
1.039048631e-08
1.035342263e-08
1.031192916e-08
1.026631806e-08
1.021687407e-08
1.016383756e-08
1.010741349e-08
1.004776599e-08
9.985008427e-09
9.919196595e-09
9.850323835e-09
9.778318161e-09
9.703040051e-09
9.624281281e-09
9.5417642e-09
9.455141191e-09
9.363994504e-09
9.267836606e-09
9.166111041e-09
9.058193772e-09
8.943395143e-09
8.820962808e-09
8.69008608e-09
8.549902073e-09
8.399503695e-09
8.23794966e-09
8.064277212e-09
7.877518513e-09
7.676721188e-09
7.460972894e-09
7.229430151e-09
6.981352735e-09
6.716144332e-09
6.433397279e-09
6.132938091e-09
5.814873465e-09
5.479637581e-09
5.128036754e-09
4.76128462e-09
4.381024732e-09
3.989338186e-09
3.588729568e-09
3.182087738e-09
2.772624671e-09
1.050193033e-08
1.049834607e-08
1.048919691e-08
1.04746557e-08
1.045533733e-08
1.04316363e-08
1.040368296e-08
1.037160174e-08
1.033560051e-08
1.029592091e-08
1.025278069e-08
1.020636115e-08
1.015681131e-08
1.010424478e-08
1.004873079e-08
9.99028627e-09
9.928870356e-09
9.864380803e-09
9.796650893e-09
9.725446734e-09
9.650464769e-09
9.571329442e-09
9.487591229e-09
9.398725031e-09
9.304128906e-09
9.203123106e-09
9.094949781e-09
8.978773815e-09
8.853685274e-09
8.718703724e-09
8.572784496e-09
8.41482718e-09
8.243687192e-09
8.058191808e-09
7.857161968e-09
7.639440048e-09
7.40392312e-09
7.149602365e-09
6.875610719e-09
6.581278977e-09
6.266196748e-09
5.930274797e-09
5.57380892e-09
5.197543653e-09
4.802727758e-09
4.391153791e-09
3.965177784e-09
3.52771115e-09
3.082176403e-09
2.6324282e-09
1.050701001e-08
1.050389791e-08
1.049616551e-08
1.048379286e-08
1.04673244e-08
1.044709196e-08
1.042319486e-08
1.039572438e-08
1.036484122e-08
1.033073137e-08
1.029356074e-08
1.025346398e-08
1.021054709e-08
1.016488437e-08
1.01165098e-08
1.006540884e-08
1.001151291e-08
9.954695064e-09
9.894765888e-09
9.831469336e-09
9.76447867e-09
9.693392565e-09
9.617731363e-09
9.536933297e-09
9.450350684e-09
9.357246433e-09
9.256791412e-09
9.148062962e-09
9.030044615e-09
8.901627246e-09
8.761612392e-09
8.608718615e-09
8.441591587e-09
8.258818745e-09
8.058950266e-09
7.84052832e-09
7.602125161e-09
7.342389418e-09
7.060101431e-09
6.754240168e-09
6.424061543e-09
6.069183784e-09
5.689676481e-09
5.286151084e-09
4.859844632e-09
4.412684907e-09
3.947329876e-09
3.467173132e-09
2.976300964e-09
2.479394256e-09
1.051863153e-08
1.051602164e-08
1.05095425e-08
1.049914955e-08
1.048530686e-08
1.046829078e-08
1.04481761e-08
1.042502862e-08
1.039897209e-08
1.037015132e-08
1.03386935e-08
1.030469864e-08
1.026824094e-08
1.02293653e-08
1.018807925e-08
1.014434515e-08
1.009807436e-08
1.004912214e-08
9.997282475e-09
9.942282737e-09
9.8837783e-09
9.821347165e-09
9.754484203e-09
9.682594901e-09
9.604988881e-09
9.520873818e-09
9.429350204e-09
9.329406856e-09
9.219916881e-09
9.099634523e-09
8.967194206e-09
8.821113381e-09
8.65979999e-09
8.481564792e-09
8.284639873e-09
8.067206634e-09
7.827436302e-09
7.56354313e-09
7.273849538e-09
6.956865798e-09
6.611387599e-09
6.236609139e-09
5.832245652e-09
5.398661265e-09
4.936994841e-09
4.449267842e-09
3.938459006e-09
3.408533758e-09
2.86440928e-09
2.311837651e-09
1.053575102e-08
1.053360812e-08
1.052828573e-08
1.05197415e-08
1.050835667e-08
1.04943587e-08
1.047780671e-08
1.045875116e-08
1.043729015e-08
1.041353866e-08
1.038759612e-08
1.035953814e-08
1.032941677e-08
1.02972569e-08
1.026304872e-08
1.022674031e-08
1.018823131e-08
1.014736715e-08
1.010393294e-08
1.005764726e-08
1.000815558e-08
9.955023161e-09
9.897726933e-09
9.835646783e-09
9.76805663e-09
9.6941157e-09
9.612859884e-09
9.523192977e-09
9.423877958e-09
9.313528989e-09
9.190605197e-09
9.053407703e-09
8.900081489e-09
8.728623296e-09
8.536896593e-09
8.322656212e-09
8.083587157e-09
7.817361116e-09
7.521711409e-09
7.194527977e-09
6.833977055e-09
6.43864689e-09
6.007713532e-09
5.541120188e-09
5.039763317e-09
4.50566739e-09
3.942122415e-09
3.353760958e-09
2.746546226e-09
2.127638362e-09
1.055739144e-08
1.055568682e-08
1.055145038e-08
1.05446456e-08
1.053557893e-08
1.052443701e-08
1.051127062e-08
1.049612226e-08
1.047907263e-08
1.046021613e-08
1.0439634e-08
1.041738669e-08
1.03935133e-08
1.036802791e-08
1.034091262e-08
1.031211029e-08
1.028151783e-08
1.024897983e-08
1.0214282e-08
1.017714413e-08
1.013721216e-08
1.0094049e-08
1.004712415e-08
9.995802814e-09
9.93933478e-09
9.876842689e-09
9.807309029e-09
9.729561929e-09
9.642260813e-09
9.543882898e-09
9.432710726e-09
9.306821096e-09
9.164077583e-09
9.002129978e-09
8.818422817e-09
8.610214188e-09
8.374608646e-09
8.10861139e-09
7.809209268e-09
7.47348079e-09
7.098739449e-09
6.682716327e-09
6.22378065e-09
5.721190511e-09
5.175365279e-09
4.588160927e-09
3.963112309e-09
3.305601132e-09
2.622902451e-09
1.924050791e-09
1.058263358e-08
1.058134323e-08
1.057813424e-08
1.057297824e-08
1.056611424e-08
1.055769413e-08
1.054776575e-08
1.053637002e-08
1.052357782e-08
1.050947115e-08
1.049412135e-08
1.047758205e-08
1.045988799e-08
1.044105139e-08
1.042105535e-08
1.03998467e-08
1.037732912e-08
1.035335662e-08
1.03277266e-08
1.030017183e-08
1.027035094e-08
1.023783731e-08
1.02021069e-08
1.016252559e-08
1.011833554e-08
1.006863987e-08
1.001238475e-08
9.948339475e-09
9.875075737e-09
9.790946787e-09
9.694066676e-09
9.582289257e-09
9.453188671e-09
9.30404537e-09
9.131841895e-09
8.933270407e-09
8.704754784e-09
8.442495624e-09
8.14254904e-09
7.800945995e-09
7.413857833e-09
6.977818509e-09
6.490010604e-09
5.948610709e-09
5.353184419e-09
4.705111924e-09
4.007998899e-09
3.268005535e-09
2.49401632e-09
1.697556002e-09
1.061060675e-08
1.060971004e-08
1.060747839e-08
1.0603893e-08
1.059913145e-08
1.059331611e-08
1.058649667e-08
1.057871795e-08
1.057004741e-08
1.056056155e-08
1.055032907e-08
1.053940448e-08
1.052782639e-08
1.051561373e-08
1.050275946e-08
1.048922365e-08
1.047492692e-08
1.045974395e-08
1.044349606e-08
1.042594197e-08
1.040676679e-08
1.038556967e-08
1.036185067e-08
1.033499626e-08
1.030426266e-08
1.026875614e-08
1.022741048e-08
1.017896193e-08
1.012192144e-08
1.005454423e-08
9.974797494e-09
9.880327261e-09
9.768425017e-09
9.635995878e-09
9.479533143e-09
9.2951048e-09
9.078356529e-09
8.824538355e-09
8.528568392e-09
8.185148145e-09
7.788941331e-09
7.334832336e-09
6.818283211e-09
6.235796978e-09
5.58548337e-09
4.8677108e-09
4.085791677e-09
3.246596564e-09
2.36096101e-09
1.443722326e-09
1.064048253e-08
1.063996098e-08
1.063866144e-08
1.063657558e-08
1.063382482e-08
1.063050668e-08
1.062667664e-08
1.062238796e-08
1.061770997e-08
1.061271973e-08
1.060748987e-08
1.060208302e-08
1.059654931e-08
1.059092237e-08
1.058521347e-08
1.057940532e-08
1.057344606e-08
1.056724279e-08
1.056065342e-08
1.055347636e-08
1.05454387e-08
1.053618348e-08
1.052525587e-08
1.051208687e-08
1.049597329e-08
1.047605386e-08
1.045128246e-08
1.042039797e-08
1.038188931e-08
1.033395418e-08
1.027445285e-08
1.02008595e-08
1.01102116e-08
9.999056091e-09
9.863395118e-09
9.698639479e-09
9.499578206e-09
9.260371401e-09
8.974580106e-09
8.635255582e-09
8.235110653e-09
7.766798005e-09
7.223329449e-09
6.598667659e-09
5.888506827e-09
5.091244521e-09
4.209107811e-09
3.249313349e-09
2.225026081e-09
1.155728858e-09
1.06714712e-08
1.067130735e-08
1.067089676e-08
1.067024213e-08
1.066941346e-08
1.06684875e-08
1.066752881e-08
1.06666027e-08
1.066578495e-08
1.066515849e-08
1.066480591e-08
1.06648044e-08
1.066522241e-08
1.066611554e-08
1.066752151e-08
1.066945502e-08
1.067190227e-08
1.06748143e-08
1.067809821e-08
1.068160657e-08
1.068512574e-08
1.068836329e-08
1.069093329e-08
1.069233811e-08
1.0691946e-08
1.068896441e-08
1.068240915e-08
1.067106838e-08
1.065345983e-08
1.062777969e-08
1.059184281e-08
1.054301542e-08
1.047814136e-08
1.039346058e-08
1.028451998e-08
1.014608223e-08
9.972043045e-09
9.755366354e-09
9.488051491e-09
9.161160763e-09
8.76494357e-09
8.289097647e-09
7.723222816e-09
7.057533672e-09
6.283882155e-09
5.397125098e-09
4.396840484e-09
3.289348758e-09
2.089820707e-09
8.238877833e-10
1.070282035e-08
1.070299679e-08
1.070343159e-08
1.07041389e-08
1.070514177e-08
1.070649975e-08
1.070828901e-08
1.071058987e-08
1.071348847e-08
1.071707832e-08
1.072145714e-08
1.072672213e-08
1.073296586e-08
1.074027243e-08
1.074871372e-08
1.075834534e-08
1.076920151e-08
1.078128802e-08
1.079457352e-08
1.080897968e-08
1.082437066e-08
1.084054061e-08
1.085719791e-08
1.087394555e-08
1.089025779e-08
1.090545258e-08
1.09186575e-08
1.092876748e-08
1.093439396e-08
1.093380528e-08
1.092485533e-08
1.090489733e-08
1.087068233e-08
1.081824351e-08
1.074276508e-08
1.063843545e-08
1.049829154e-08
1.031406587e-08
1.007605142e-08
9.773012362e-09
9.392188673e-09
8.919459069e-09
8.339752402e-09
7.637836078e-09
6.799614821e-09
5.814058325e-09
4.675764191e-09
3.388100614e-09
1.966672635e-09
4.430044984e-10
1.073381495e-08
1.073431333e-08
1.073554747e-08
1.073754341e-08
1.074028147e-08
1.074380708e-08
1.074820999e-08
1.075358786e-08
1.076004044e-08
1.07676757e-08
1.077661059e-08
1.07869666e-08
1.079886524e-08
1.081242497e-08
1.082775885e-08
1.084497138e-08
1.086415346e-08
1.088537555e-08
1.09086799e-08
1.093407234e-08
1.096151296e-08
1.099090401e-08
1.102207381e-08
1.105475705e-08
1.108857179e-08
1.112299175e-08
1.115731072e-08
1.119059639e-08
1.12216335e-08
1.124885637e-08
1.1270267e-08
1.128333214e-08
1.128485529e-08
1.127082376e-08
1.123622873e-08
1.11748516e-08
1.107901618e-08
1.093931551e-08
1.074432506e-08
1.048032396e-08
1.013107248e-08
9.677725207e-09
9.098999005e-09
8.371805653e-09
7.472637541e-09
6.38020052e-09
5.079530612e-09
3.567932813e-09
1.861169723e-09
-1.045017241e-12
1.076377856e-08
1.076457881e-08
1.076656228e-08
1.076976718e-08
1.077413528e-08
1.077970048e-08
1.078656748e-08
1.079485298e-08
1.080467287e-08
1.081615242e-08
1.082943067e-08
1.084465656e-08
1.086198452e-08
1.088157247e-08
1.09035806e-08
1.092816861e-08
1.095549114e-08
1.098569202e-08
1.101889831e-08
1.105521393e-08
1.109471128e-08
1.113741997e-08
1.118331236e-08
1.123228599e-08
1.128414177e-08
1.133855623e-08
1.13950459e-08
1.1452922e-08
1.151123246e-08
1.156868881e-08
1.162357446e-08
1.167362859e-08
1.17158981e-08
1.174655108e-08
1.176064567e-08
1.175184337e-08
1.171205601e-08
1.163102327e-08
1.14958226e-08
1.129031861e-08
1.099458839e-08
1.058439932e-08
1.003085388e-08
9.300414944e-09
8.355600331e-09
7.157348295e-09
5.669447083e-09
3.870125956e-09
1.76594829e-09
-5.829717392e-10
1.079207626e-08
1.07931561e-08
1.079583397e-08
1.080016032e-08
1.08060423e-08
1.081350456e-08
1.08226675e-08
1.083366788e-08
1.084663931e-08
1.08617261e-08
1.087909114e-08
1.089891307e-08
1.092138239e-08
1.094670036e-08
1.097507848e-08
1.100673614e-08
1.104189695e-08
1.108078497e-08
1.112362118e-08
1.117061874e-08
1.12219757e-08
1.127786549e-08
1.133842585e-08
1.140374513e-08
1.147384318e-08
1.154864493e-08
1.162794678e-08
1.171137563e-08
1.179833516e-08
1.188793271e-08
1.197888275e-08
1.206938384e-08
1.215695971e-08
1.223824918e-08
1.230873187e-08
1.236237418e-08
1.239117157e-08
1.238456036e-08
1.23286769e-08
1.22054438e-08
1.199148958e-08
1.165694975e-08
1.116433341e-08
1.046761109e-08
9.511995993e-09
8.234756992e-09
6.566081672e-09
4.441355975e-09
1.803723056e-09
-1.289951904e-09
1.0818119e-08
1.081945386e-08
1.082276589e-08
1.082811731e-08
1.083538453e-08
1.084458481e-08
1.085585446e-08
1.086935059e-08
1.088522511e-08
1.090364212e-08
1.092478928e-08
1.094887635e-08
1.097613184e-08
1.100680247e-08
1.104115301e-08
1.10794648e-08
1.112203368e-08
1.116916855e-08
1.12211899e-08
1.127842691e-08
1.134121244e-08
1.140987682e-08
1.148474055e-08
1.156610479e-08
1.165423675e-08
1.174934847e-08
1.185156898e-08
1.196090936e-08
1.20772163e-08
1.220010667e-08
1.232887726e-08
1.246238564e-08
1.259889198e-08
1.273584283e-08
1.286957588e-08
1.29949234e-08
1.310467506e-08
1.318884195e-08
1.323365655e-08
1.322022349e-08
1.312273324e-08
1.29061293e-08
1.252343919e-08
1.191268059e-08
1.099585465e-08
9.677492332e-09
7.852831373e-09
5.411775278e-09
2.206228006e-09
-1.784347128e-09
1.084136901e-08
1.084293227e-08
1.084681257e-08
1.085308314e-08
1.086159338e-08
1.087235485e-08
1.088551946e-08
1.090126409e-08
1.091975877e-08
1.094118724e-08
1.096576204e-08
1.099372445e-08
1.102534142e-08
1.106090497e-08
1.110073269e-08
1.114516776e-08
1.119457911e-08
1.124936196e-08
1.13099379e-08
1.137675415e-08
1.145028237e-08
1.153101722e-08
1.161947307e-08
1.171617793e-08
1.182166458e-08
1.193645866e-08
1.206106124e-08
1.219592248e-08
1.234140468e-08
1.24977317e-08
1.266491756e-08
1.284266509e-08
1.30302244e-08
1.322619496e-08
1.342824607e-08
1.363272389e-08
1.383409511e-08
1.402414596e-08
1.419082297e-08
1.431654038e-08
1.43756979e-08
1.433092308e-08
1.412774128e-08
1.368597608e-08
1.289176994e-08
1.157899126e-08
9.555965132e-09
6.560970194e-09
2.449726578e-09
-2.836962413e-09
1.086134517e-08
1.086310818e-08
1.086748494e-08
1.087455868e-08
1.088415577e-08
1.089628355e-08
1.091110863e-08
1.092882636e-08
1.094962388e-08
1.097370375e-08
1.10013026e-08
1.103269224e-08
1.106817639e-08
1.110809008e-08
1.115280109e-08
1.1202712e-08
1.125826259e-08
1.1319932e-08
1.138824036e-08
1.146375055e-08
1.154707135e-08
1.1638861e-08
1.173982858e-08
1.18507324e-08
1.197237777e-08
1.210561531e-08
1.225133621e-08
1.241045903e-08
1.258390737e-08
1.277257974e-08
1.29773054e-08
1.319877394e-08
1.343742906e-08
1.369331648e-08
1.396586153e-08
1.425353864e-08
1.45533836e-08
1.486026833e-08
1.516580586e-08
1.545666919e-08
1.571197009e-08
1.58989531e-08
1.596599691e-08
1.582927401e-08
1.535284774e-08
1.429324243e-08
1.227653887e-08
8.493774782e-09
2.345175437e-09
-7.74668517e-09
1.08776276e-08
1.087955944e-08
1.088435475e-08
1.089210581e-08
1.090262016e-08
1.09159022e-08
1.093213172e-08
1.09515205e-08
1.097427105e-08
1.100060323e-08
1.103077588e-08
1.106508867e-08
1.110387845e-08
1.1147519e-08
1.119642391e-08
1.125105046e-08
1.131190364e-08
1.137953975e-08
1.14545703e-08
1.153766695e-08
1.162956803e-08
1.173108554e-08
1.184311163e-08
1.196662445e-08
1.210269435e-08
1.22524908e-08
1.241728881e-08
1.259847247e-08
1.279753381e-08
1.30160671e-08
1.325575543e-08
1.351834049e-08
1.380556822e-08
1.411910378e-08
1.44603974e-08
1.483046739e-08
1.52295619e-08
1.565663964e-08
1.610856162e-08
1.65788216e-08
1.705553487e-08
1.751812439e-08
1.793180479e-08
1.823714325e-08
1.833182392e-08
1.801953546e-08
1.693899924e-08
1.409031242e-08
7.970939406e-09
-1.003898503e-08
1.088986151e-08
1.08919287e-08
1.089705898e-08
1.090535268e-08
1.091660281e-08
1.093081186e-08
1.094817058e-08
1.096890438e-08
1.099322883e-08
1.102137875e-08
1.105363219e-08
1.109031249e-08
1.113178438e-08
1.117845461e-08
1.123077642e-08
1.128925486e-08
1.135445133e-08
1.142698863e-08
1.150755758e-08
1.159692569e-08
1.169594616e-08
1.180556674e-08
1.192684069e-08
1.206094122e-08
1.220917749e-08
1.23730096e-08
1.255406444e-08
1.275415572e-08
1.297530622e-08
1.321976787e-08
1.349003928e-08
1.378888014e-08
1.411931685e-08
1.448463253e-08