/*--------------------------------*- C++ -*----------------------------------*\
| =========                 |                                                 |
| \\      /  F ield         | foam-extend: Open Source CFD                    |
|  \\    /   O peration     | Version:     4.1                                |
|   \\  /    A nd           | Web:         http://www.foam-extend.org         |
|    \\/     M anipulation  |                                                 |
\*---------------------------------------------------------------------------*/
FoamFile
{
    version     2.0;
    format      ascii;
    class       surfaceScalarField;
    location    "100000";
    object      phi;
}
// * * * * * * * * * * * * * * * * * * * * * * * * * * * * * * * * * * * * * //

dimensions      [0 3 -1 0 0 0 0];

internalField   nonuniform List<scalar> 
31542
(
1.062524466e-07
3.077553387e-09
1.00615713e-07
5.636733326e-09
9.41050707e-08
6.510642314e-09
8.73128215e-08
6.792249335e-09
8.052026848e-08
6.792553049e-09
7.398661785e-08
6.533650447e-09
6.78856428e-08
6.100974668e-09
6.231220724e-08
5.573435127e-09
5.731143446e-08
5.000772464e-09
5.289338701e-08
4.418047386e-09
4.904341336e-08
3.849973887e-09
4.572864336e-08
3.314770445e-09
4.290422305e-08
2.824420841e-09
4.051916754e-08
2.385056017e-09
3.852070295e-08
1.998465009e-09
3.685718984e-08
1.663513459e-09
3.548003313e-08
1.37715704e-09
3.434483901e-08
1.135194482e-09
3.341198975e-08
9.32849632e-10
3.26467986e-08
7.651915221e-10
3.201938492e-08
6.274139847e-10
3.150437311e-08
5.150120547e-10
3.108048811e-08
4.23885189e-10
3.073010161e-08
3.503866862e-10
3.043873437e-08
2.913674614e-10
3.019458903e-08
2.441456058e-10
2.998812391e-08
2.064654166e-10
2.981166446e-08
1.764597465e-10
2.96590566e-08
1.526081755e-10
2.952536477e-08
1.336921661e-10
2.940661417e-08
1.187509727e-10
2.929957415e-08
1.070403882e-10
2.920157927e-08
9.799517381e-11
2.911038382e-08
9.119560177e-11
2.902404556e-08
8.633824947e-11
2.894083455e-08
8.321089285e-11
2.885916334e-08
8.167110982e-11
2.877753525e-08
8.162813742e-11
2.869450788e-08
8.302760225e-11
2.860866936e-08
8.583886967e-11
2.851862491e-08
9.004478801e-11
2.842299162e-08
9.563350051e-11
2.832039974e-08
1.025919471e-10
2.8209499e-08
1.10900751e-10
2.808896881e-08
1.205302822e-10
2.795753127e-08
1.314377683e-10
2.781396603e-08
1.435655172e-10
2.765712646e-08
1.568397553e-10
2.748595659e-08
1.711699289e-10
1.864486451e-10
2.729950795e-08
1.113827044e-07
1.024849637e-09
1.139934133e-07
3.026024603e-09
1.16080678e-07
4.423377004e-09
1.174546253e-07
5.418301052e-09
1.180741044e-07
6.173072725e-09
1.179344025e-07
6.673351219e-09
1.171289407e-07
6.906435384e-09
1.15785975e-07
6.916400018e-09
1.140320585e-07
6.754688297e-09
1.119853339e-07
6.464771219e-09
1.097508773e-07
6.084429603e-09
1.074174724e-07
5.648174221e-09
1.050566723e-07
5.185219533e-09
1.027239607e-07
4.717766145e-09
1.004603515e-07
4.262072655e-09
9.829450078e-08
3.829362816e-09
9.624489098e-08
3.42676572e-09
9.432193306e-08
3.058151534e-09
9.252988207e-08
2.724899906e-09
9.086847836e-08
2.426594486e-09
8.933428369e-08
2.1616077e-09
8.792172814e-08
1.92756639e-09
8.662391437e-08
1.721697527e-09
8.543328953e-08
1.54101002e-09
8.434200317e-08
1.38265246e-09
8.334220218e-08
1.24394554e-09
8.242623096e-08
1.122435994e-09
8.158675447e-08
1.015935965e-09
8.081682947e-08
9.225331259e-10
8.010993607e-08
8.405855112e-10
7.94599803e-08
7.687064801e-10
7.886127696e-08
7.057431086e-10
7.830852029e-08
6.50750886e-10
7.779674769e-08
6.029670732e-10
7.732130061e-08
5.617843139e-10
7.687778541e-08
5.267254657e-10
7.646203623e-08
4.97420162e-10
7.60700813e-08
4.735833648e-10
7.569811336e-08
4.549960052e-10
7.534246487e-08
4.414877222e-10
7.499958803e-08
4.329216781e-10
7.466604001e-08
4.291812632e-10
7.433847301e-08
4.301584889e-10
7.401362934e-08
4.35743946e-10
7.368834112e-08
4.458181715e-10
7.335953423e-08
4.602445481e-10
7.302423556e-08
4.788642126e-10
7.267958433e-08
5.014909141e-10
7.232284647e-08
5.27907384e-10
5.578629861e-10
7.195143145e-08
1.096483895e-07
7.064601247e-10
1.107374952e-07
1.93691931e-09
1.12202371e-07
2.95850136e-09
1.138632567e-07
3.757415055e-09
1.156305264e-07
4.405802548e-09
1.173759654e-07
4.927911735e-09
1.189739643e-07
5.308436016e-09
1.203436688e-07
5.546695422e-09
1.21440435e-07
5.657922233e-09
1.222459804e-07
5.659226308e-09
1.227632738e-07
5.567136653e-09
1.230119449e-07
5.399503482e-09
1.2302225e-07
5.174914653e-09
1.228292047e-07
4.910811563e-09
1.224688271e-07
4.622450326e-09
1.219756362e-07
4.322553704e-09
1.213811591e-07
4.021242883e-09
1.207131308e-07
3.726179955e-09
1.199952187e-07
3.442812204e-09
1.192471006e-07
3.174712765e-09
1.184847559e-07
2.923952646e-09
1.177208704e-07
2.691452088e-09
1.169652812e-07
2.477286844e-09
1.162253445e-07
2.280946887e-09
1.155064212e-07
2.101575795e-09
1.148122483e-07
1.938118535e-09
1.141452533e-07
1.789431106e-09
1.13506823e-07
1.654366551e-09
1.128975218e-07
1.531834752e-09
1.123172679e-07
1.420839784e-09
1.117654743e-07
1.320500462e-09
1.112411589e-07
1.230058683e-09
1.107430307e-07
1.148879033e-09
1.102695552e-07
1.076442344e-09
1.098190041e-07
1.012335278e-09
1.09389492e-07
9.562375557e-10
1.089790045e-07
9.079079321e-10
1.085854184e-07
8.671697205e-10
1.082065185e-07
8.338963314e-10
1.078400093e-07
8.079972063e-10
1.074835267e-07
7.894045726e-10
1.071346473e-07
7.780609134e-10
1.067908987e-07
7.739073111e-10
1.0644977e-07
7.768729315e-10
1.061087233e-07
7.868649789e-10
1.057652085e-07
8.037592523e-10
1.054166758e-07
8.273967425e-10
1.050605918e-07
8.57574713e-10
1.046944572e-07
8.940417558e-10
9.364942451e-10
1.043158256e-07
1.095665644e-07
4.698954687e-10
1.100953381e-07
1.408145274e-09
1.108184355e-07
2.235403626e-09
1.11663099e-07
2.912751176e-09
1.126168154e-07
3.452085676e-09
1.13669788e-07
3.874938636e-09
1.147895059e-07
4.188717608e-09
1.159369196e-07
4.399281196e-09
1.170760408e-07
4.51880058e-09
1.181742467e-07
4.561019907e-09
1.192034726e-07
4.537910137e-09
1.201425871e-07
4.460388402e-09
1.209783155e-07
4.339185557e-09
1.21704531e-07
4.184595362e-09
1.223210678e-07
4.005912834e-09
1.228323863e-07
3.811234618e-09
1.232461956e-07
3.607433136e-09
1.235722023e-07
3.400172814e-09
1.238210634e-07
3.193950692e-09
1.240035885e-07
2.992187178e-09
1.241301806e-07
2.797360071e-09
1.24210475e-07
2.611157125e-09
1.242531322e-07
2.434629099e-09
1.242657458e-07
2.268332815e-09
1.242548589e-07
2.112462418e-09
1.242260152e-07
1.966962125e-09
1.241838324e-07
1.831613833e-09
1.241320923e-07
1.706106669e-09
1.240738353e-07
1.590091649e-09
1.24011453e-07
1.483221927e-09
1.239467728e-07
1.385180312e-09
1.238811343e-07
1.295696798e-09
1.238154549e-07
1.214558188e-09
1.237502857e-07
1.141611421e-09
1.236858588e-07
1.076762212e-09
1.236221263e-07
1.019970255e-09
1.235587926e-07
9.712418612e-10
1.234953414e-07
9.306209867e-10
1.234310589e-07
8.981789659e-10
1.233650527e-07
8.740034863e-10
1.232962694e-07
8.581880395e-10
1.232235096e-07
8.508207302e-10
1.231454437e-07
8.519733402e-10
1.230606256e-07
8.616909932e-10
1.229675081e-07
8.799823004e-10
1.228644567e-07
9.068104228e-10
1.22749767e-07
9.42085983e-10
1.22621682e-07
9.856592039e-10
1.224784101e-07
1.037313309e-09
1.09676001e-09
1.223181441e-07
1.094417518e-07
3.581437416e-10
1.097688658e-07
1.081030981e-09
1.102617959e-07
1.742473235e-09
1.108673578e-07
2.307188876e-09
1.115485221e-07
2.770921205e-09
1.122821863e-07
3.141274287e-09
1.130474366e-07
3.423467331e-09
1.138255639e-07
3.621153884e-09
1.14602932e-07
3.741432461e-09
1.153695867e-07
3.794365068e-09
1.161171725e-07
3.790324062e-09
1.168385324e-07
3.739028207e-09
1.175280475e-07
3.649670057e-09
1.181817992e-07
3.530843237e-09
1.187974747e-07
3.39023681e-09
1.193742312e-07
3.234477723e-09
1.199125187e-07
3.069145278e-09
1.204138513e-07
2.898840062e-09
1.208805427e-07
2.727259244e-09
1.213154449e-07
2.557284999e-09
1.217217139e-07
2.391091004e-09
1.221026137e-07
2.230257111e-09
1.224613614e-07
2.075881045e-09
1.228010128e-07
1.92868116e-09
1.231243854e-07
1.789089526e-09
1.23434014e-07
1.657333568e-09
1.237321252e-07
1.533502636e-09
1.240206323e-07
1.417599695e-09
1.243011407e-07
1.309583213e-09
1.245749627e-07
1.209399824e-09
1.248431353e-07
1.117007505e-09
1.251064402e-07
1.032391752e-09
1.253654232e-07
9.555750804e-10
1.256204135e-07
8.86621268e-10
1.258715401e-07
8.256357105e-10
1.261187478e-07
7.727627631e-10
1.263618096e-07
7.281801459e-10
1.266003388e-07
6.920918505e-10
1.268337988e-07
6.647191118e-10
1.270615123e-07
6.462903258e-10
1.27282669e-07
6.370317281e-10
1.27496334e-07
6.371561174e-10
1.277014555e-07
6.468519352e-10
1.278968737e-07
6.662726611e-10
1.280813295e-07
6.955261545e-10
1.282534754e-07
7.346641354e-10
1.284118862e-07
7.836748982e-10
1.285550712e-07
8.424738201e-10
1.286814885e-07
9.108955894e-10
9.886886475e-10
1.287895596e-07
1.094064808e-07
2.816629458e-10
1.096410558e-07
8.464556245e-10
1.10008794e-07
1.374734667e-09
1.104743888e-07
1.841593739e-09
1.110081592e-07
2.237150512e-09
1.115882699e-07
2.561163237e-09
1.121963945e-07
2.815342399e-09
1.128159961e-07
3.001552029e-09
1.134337807e-07
3.123647512e-09
1.14040257e-07
3.18788836e-09
1.146289474e-07
3.201633291e-09
1.151956533e-07
3.172321893e-09
1.157381016e-07
3.107221358e-09
1.162556194e-07
3.013324888e-09
1.16748725e-07
2.89713064e-09
1.172187608e-07
2.764441396e-09
1.176676217e-07
2.620283889e-09
1.180975502e-07
2.46891131e-09
1.185109691e-07
2.313840052e-09
1.189103478e-07
2.15790611e-09
1.192980983e-07
2.003340295e-09
1.196764999e-07
1.85185515e-09
1.200476469e-07
1.704733828e-09
1.204134132e-07
1.562914531e-09
1.207754351e-07
1.427067488e-09
1.211351058e-07
1.297662679e-09
1.214935806e-07
1.175027698e-09
1.218517849e-07
1.059395082e-09
1.222104267e-07
9.509411021e-10
1.225700107e-07
8.498154998e-10
1.229308546e-07
7.561634671e-10
1.232931027e-07
6.70143704e-10
1.236567397e-07
5.91938174e-10
1.240216035e-07
5.217577453e-10
1.243873947e-07
4.598445227e-10
1.247536865e-07
4.064708631e-10
1.251199316e-07
3.619349064e-10
1.254854674e-07
3.265559042e-10
1.258495258e-07
3.006607841e-10
1.26211233e-07
2.845834956e-10
1.265696144e-07
2.786506669e-10
1.269236004e-07
2.831704912e-10
1.272720302e-07
2.984221955e-10
1.27613658e-07
3.246447487e-10
1.279471587e-07
3.620252401e-10
1.282711378e-07
4.106846481e-10
1.285841337e-07
4.706786846e-10
1.28884632e-07
5.419753318e-10
1.291710752e-07
6.244522922e-10
7.178894105e-10
1.294418744e-07
1.093876102e-07
2.240525755e-10
1.095608428e-07
6.732226761e-10
1.098370163e-07
1.098560922e-09
1.101960697e-07
1.482540089e-09
1.106182615e-07
1.814958616e-09
1.110869974e-07
2.092427092e-09
1.115877108e-07
2.314628702e-09
1.121068717e-07
2.482390861e-09
1.126326125e-07
2.597906418e-09
1.131554845e-07
2.665015978e-09
1.136684483e-07
2.688669216e-09
1.141665321e-07
2.674237765e-09
1.146465782e-07
2.627174864e-09
1.151070308e-07
2.552871809e-09
1.155476611e-07
2.456499953e-09
1.159692581e-07
2.342844152e-09
1.16373345e-07
2.216196704e-09
1.16761938e-07
2.080318084e-09
1.171373417e-07
1.938436188e-09
1.175019804e-07
1.793267055e-09
1.178582673e-07
1.647053034e-09
1.182085074e-07
1.501614645e-09
1.185548315e-07
1.358409445e-09
1.188991533e-07
1.218592634e-09
1.192431464e-07
1.083074285e-09
1.195882377e-07
9.525713096e-10
1.19935608e-07
8.276571275e-10
1.202862007e-07
7.088020425e-10
1.206407324e-07
5.964089126e-10
1.209997095e-07
4.908380845e-10
1.213634423e-07
3.924306089e-10
1.217320583e-07
3.015278277e-10
1.221055182e-07
2.18478443e-10
1.224836285e-07
1.436475004e-10
1.228660509e-07
7.742205893e-11
1.232523119e-07
2.020961178e-11
1.236418157e-07
-2.756912098e-11
1.240338297e-07
-6.545821036e-11
1.244275161e-07
-9.302553082e-11
1.248219226e-07
-1.098226936e-10
1.252159947e-07
-1.154211304e-10
1.256085802e-07
-1.094148561e-10
1.259984347e-07
-9.143221748e-11
1.263842267e-07
-6.114728009e-11
1.267645377e-07
-1.828592182e-11
1.271378975e-07
3.732469797e-11
1.275027537e-07
1.058222613e-10
1.278575131e-07
1.872158156e-10
1.282005441e-07
2.814214022e-10
3.882410053e-10
1.285301929e-07
1.093738117e-07
1.802406035e-10
1.095059038e-07
5.411299781e-10
1.097195265e-07
8.849378693e-10
1.100029645e-07
1.199101886e-09
1.10342788e-07
1.475134868e-09
1.107262822e-07
1.708932564e-09
1.111418782e-07
1.89903242e-09
1.115789517e-07
2.045316929e-09
1.120280342e-07
2.148823621e-09
1.124812172e-07
2.211832644e-09
1.129322676e-07
2.237618571e-09
1.13376489e-07
2.230016083e-09
1.138105614e-07
2.193102112e-09
1.14232411e-07
2.131021851e-09
1.146410565e-07
2.047854077e-09
1.150364197e-07
1.947480757e-09
1.154191285e-07
1.833487611e-09
1.157903368e-07
1.709109589e-09
1.161515624e-07
1.577210242e-09
1.165045469e-07
1.440282182e-09
1.168511365e-07
1.300463015e-09
1.17193187e-07
1.159563789e-09
1.175324914e-07
1.019104721e-09
1.178707251e-07
8.803588456e-10
1.18209408e-07
7.443912656e-10
1.185498867e-07
6.120923547e-10
1.188933189e-07
4.842246773e-10
1.192406675e-07
3.614530201e-10
1.195926896e-07
2.443865103e-10
1.199499698e-07
1.335577474e-10
1.203129086e-07
2.949170766e-11
1.206817274e-07
-6.729087745e-11
1.210564753e-07
-1.5626951e-10
1.214370391e-07
-2.369164566e-10
1.218231481e-07
-3.086872793e-10
1.222143823e-07
-3.710249088e-10
1.22610173e-07
-4.233600378e-10
1.230098284e-07
-4.651137738e-10
1.234125131e-07
-4.957102449e-10
1.238172671e-07
-5.145764669e-10
1.242230032e-07
-5.211570321e-10
1.246285145e-07
-5.149259751e-10
1.25032481e-07
-4.953987326e-10
1.254334791e-07
-4.621455523e-10
1.258299986e-07
-4.148055157e-10
1.262204266e-07
-3.531032891e-10
1.266031015e-07
-2.768524169e-10
1.269762977e-07
-1.859802621e-10
1.273382533e-07
-8.053433469e-11
3.930669268e-11
1.276871875e-07
1.093645044e-07
1.457360115e-10
1.094687118e-07
4.369221215e-10
1.096385649e-07
7.150843976e-10
1.098666312e-07
9.710353718e-10
1.101437062e-07
1.198059619e-09
1.104604242e-07
1.392214291e-09
1.108079481e-07
1.551508112e-09
1.111780725e-07
1.675192247e-09
1.115633449e-07
1.763550871e-09
1.119573049e-07
1.817872394e-09
1.123546357e-07
1.840287554e-09
1.127511584e-07
1.833493115e-09
1.131437543e-07
1.800506013e-09
1.135302773e-07
1.744498748e-09
1.139094528e-07
1.668678412e-09
1.142807538e-07
1.576179641e-09
1.146442643e-07
1.469976831e-09
1.150005478e-07
1.352825746e-09
1.153505254e-07
1.22723218e-09
1.156953669e-07
1.095440182e-09
1.160363951e-07
9.594343799e-10
1.163750035e-07
8.209551676e-10
1.167125924e-07
6.815156042e-10
1.170505142e-07
5.424369427e-10
1.173900351e-07
4.04870217e-10
1.1773231e-07
2.698172542e-10
1.180783597e-07
1.381747418e-10
1.184290957e-07
1.071677486e-11
1.187851902e-07
-1.117081349e-10
1.191472363e-07
-2.28488534e-10
1.195156293e-07
-3.389013683e-10
1.198906114e-07
-4.422731195e-10
1.202722712e-07
-5.379294854e-10
1.206605414e-07
-6.251870275e-10
1.210552023e-07
-7.033484628e-10
1.214558801e-07
-7.717029779e-10
1.218620483e-07
-8.295284484e-10
1.2227303e-07
-8.760956208e-10
1.226879949e-07
-9.106752453e-10
1.231059658e-07
-9.325474532e-10
1.235258206e-07
-9.410117921e-10
1.239462953e-07
-9.354006312e-10
1.243659901e-07
-9.150934255e-10
1.247833762e-07
-8.795317576e-10
1.25196806e-07
-8.282354444e-10
1.25604522e-07
-7.60819464e-10
1.260046781e-07
-6.770083618e-10
1.263953504e-07
-5.76651964e-10
1.267745551e-07
-4.597389894e-10
-3.264103072e-10
1.271402714e-07
1.09357852e-07
1.17883716e-10
1.094419256e-07
3.528481919e-10
1.095796193e-07
5.773904459e-10
1.097660533e-07
7.84601162e-10
1.099949333e-07
9.691793727e-10
1.102595015e-07
1.127645929e-09
1.10553091e-07
1.257918274e-09
1.108693445e-07
1.358938466e-09
1.112023648e-07
1.43053034e-09
1.115468995e-07
1.473337408e-09
1.118984859e-07
1.488700941e-09
1.122534983e-07
1.478480528e-09
1.126091254e-07
1.444878736e-09
1.129633197e-07
1.390304444e-09
1.133147313e-07
1.317266839e-09
1.136626258e-07
1.228284955e-09
1.140067903e-07
1.12581208e-09
1.143474359e-07
1.012179753e-09
1.14685105e-07
8.895624696e-10
1.150205851e-07
7.599595569e-10
1.15354833e-07
6.25186044e-10
1.156889099e-07
4.86878056e-10
1.160239236e-07
3.465017012e-10
1.16360934e-07
2.054264486e-10
1.167010326e-07
6.477158474e-11
1.170452077e-07
-7.435802691e-11
1.173943542e-07
-2.10971765e-10
1.177492252e-07
-3.441543819e-10
1.181105389e-07
-4.730219217e-10
1.18478804e-07
-5.967537997e-10
1.188544274e-07
-7.145250646e-10
1.192376704e-07
-8.255164795e-10
1.196286466e-07
-9.289060391e-10
1.200273191e-07
-1.023859762e-09
1.204334976e-07
-1.109527189e-09
1.208468352e-07
-1.18504065e-09
1.212668242e-07
-1.249517629e-09
1.216927941e-07
-1.302065551e-09
1.221239081e-07
-1.341789364e-09
1.225591622e-07
-1.367801804e-09
1.229973855e-07
-1.379235283e-09
1.234372412e-07
-1.375256636e-09
1.238772315e-07
-1.355083723e-09
1.243157032e-07
-1.318003274e-09
1.247508576e-07
-1.263389681e-09
1.251807623e-07
-1.190724362e-09
1.256033684e-07
-1.099614921e-09
1.260165305e-07
-9.898141245e-10
1.264180282e-07
-8.612365684e-10
-7.139723925e-10
1.268055902e-07
1.093528755e-07
9.500794895e-11
1.094219311e-07
2.837924255e-10
1.095354617e-07
4.638596986e-10
1.09690186e-07
6.298766662e-10
1.098817311e-07
7.776341706e-10
1.101052011e-07
9.041757843e-10
1.103555801e-07
1.007539008e-09
1.10627963e-07
1.086555389e-09
1.109177165e-07
1.140776521e-09
1.11220631e-07
1.170422727e-09
1.115330375e-07
1.176294193e-09
1.118518694e-07
1.159648498e-09
1.121746712e-07
1.122076892e-09
1.124995782e-07
1.065397515e-09
1.128252784e-07
9.915665564e-10
1.131509615e-07
9.026017348e-10
1.134762539e-07
8.005193281e-10
1.1380115e-07
6.872831196e-10
1.14125945e-07
5.647669749e-10
1.14451166e-07
4.347380417e-10
1.14777506e-07
2.988455923e-10
1.151057665e-07
1.5861721e-10
1.154369627e-07
1.530531591e-11
1.157718065e-07
-1.294175049e-10
1.16111304e-07
-2.747259127e-10
1.16456301e-07
-4.193549593e-10
1.168076064e-07
-5.622770951e-10
1.171659494e-07
-7.02497331e-10
1.175319746e-07
-8.390472387e-10
1.179062029e-07
-9.709824169e-10
1.182890441e-07
-1.097366714e-09
1.186807832e-07
-1.217256004e-09
1.190815685e-07
-1.329691687e-09
1.194914033e-07
-1.433694637e-09
1.199101374e-07
-1.528261236e-09
1.203374594e-07
-1.612362591e-09
1.207728887e-07
-1.684946946e-09
1.212157682e-07
-1.744945125e-09
1.216652577e-07
-1.791279015e-09
1.221203286e-07
-1.822872927e-09
1.225797606e-07
-1.838667561e-09
1.230421404e-07
-1.837636767e-09
1.235058633e-07
-1.818806936e-09
1.239691385e-07
-1.781278495e-09
1.244299979e-07
-1.724248763e-09
1.248863091e-07
-1.647035355e-09
1.253357933e-07
-1.549099608e-09
1.257760479e-07
-1.430069642e-09
1.262045723e-07
-1.289761628e-09
-1.128198096e-09
1.266187981e-07
1.093490672e-07
7.594057574e-11
1.094066454e-07
2.262141517e-10
1.095016025e-07
3.689024966e-10
1.09631684e-07
4.99795108e-10
1.09793805e-07
6.15513147e-10
1.099844074e-07
7.135733696e-10
1.101997394e-07
7.922068012e-10
1.10436048e-07
8.502465359e-10
1.106897237e-07
8.871006071e-10
1.109574241e-07
9.02722044e-10
1.112361728e-07
8.975452908e-10
1.115234209e-07
8.72400277e-10
1.118170735e-07
8.284242268e-10
1.121154896e-07
7.669814829e-10
1.124174633e-07
6.895927932e-10
1.12722195e-07
5.978697635e-10
1.130292502e-07
4.934637065e-10
1.133385093e-07
3.780235456e-10
1.136501124e-07
2.53163349e-10
1.139644258e-07
1.204240222e-10
1.142820003e-07
-1.872931965e-11
1.146034727e-07
-1.628556821e-10
1.149294644e-07
-3.106866264e-10
1.15260952e-07
-4.60905162e-10
1.155986241e-07
-6.123979585e-10
1.159432913e-07
-7.640219359e-10
1.162957014e-07
-9.146870538e-10
1.166565495e-07
-1.063345474e-09
1.170264663e-07
-1.208964346e-09
1.174059961e-07
-1.350512665e-09
1.177955811e-07
-1.486952173e-09
1.181955498e-07
-1.617224972e-09
1.186061032e-07
-1.740245216e-09
1.190273021e-07
-1.854893435e-09
1.19459054e-07
-1.960012833e-09
1.199011001e-07
-2.054408423e-09
1.203530029e-07
-2.136849509e-09
1.208141333e-07
-2.206075623e-09
1.212836599e-07
-2.260805912e-09
1.217605386e-07
-2.299752011e-09
1.222435051e-07
-2.321634307e-09
1.227310697e-07
-2.325201504e-09
1.23221516e-07
-2.309253422e-09
1.237129039e-07
-2.272666741e-09
1.24203078e-07
-2.214423066e-09
1.246896808e-07
-2.133638126e-09
1.251701721e-07
-2.029590988e-09
1.256418545e-07
-1.901752509e-09
1.26101904e-07
-1.749811951e-09
-1.573700264e-09
1.265474055e-07
1.093460862e-07
5.985428007e-11
1.093946844e-07
1.77615999e-10
1.094750455e-07
2.885414081e-10
1.095856059e-07
3.892347829e-10
1.097241733e-07
4.769457628e-10
1.098881585e-07
5.495881207e-10
1.100747655e-07
6.055996574e-10
1.102811376e-07
6.438742261e-10
1.105044782e-07
6.63759712e-10
1.10742154e-07
6.650459353e-10
1.109917783e-07
6.479207991e-10
1.112512682e-07
6.12910173e-10
1.115188772e-07
5.608151167e-10
1.117932063e-07
4.926522956e-10
1.120731982e-07
4.096006765e-10
1.123581223e-07
3.129454684e-10
1.126475392e-07
2.040463474e-10
1.129413087e-07
8.425354963e-11
1.132394922e-07
-4.502068176e-11
1.135423562e-07
-1.824406254e-10
1.138503142e-07
-3.266879285e-10
1.141639343e-07
-4.764762838e-10
1.144838367e-07
-6.305892227e-10
1.14810767e-07
-7.878354229e-10
1.151454335e-07
-9.470643398e-10
1.15488581e-07
-1.107169224e-09
1.158409487e-07
-1.267054645e-09
1.162032394e-07
-1.425636284e-09
1.165761046e-07
-1.581829909e-09
1.169601286e-07
-1.734537078e-09
1.173558101e-07
-1.882634126e-09
1.177635467e-07
-2.024961739e-09
1.181836176e-07
-2.160315999e-09
1.186161662e-07
-2.287441795e-09
1.190611826e-07
-2.405028783e-09
1.195184849e-07
-2.511710347e-09
1.199877017e-07
-2.606066035e-09
1.204682538e-07
-2.686627706e-09
1.209593373e-07
-2.751889647e-09
1.214599077e-07
-2.80032293e-09
1.219686671e-07
-2.830394174e-09
1.224840541e-07
-2.840588627e-09
1.23004238e-07
-2.829437344e-09
1.235271193e-07
-2.795548182e-09
1.240503359e-07
-2.737640118e-09
1.24571277e-07
-2.654579725e-09
1.25087104e-07
-2.545418236e-09
1.255947791e-07
-2.409427727e-09
1.26091102e-07
-2.246134868e-09
-2.055350331e-09
1.265727517e-07
1.093437027e-07
4.615157581e-11
1.093851264e-07
1.361923902e-10
1.094537887e-07
2.198791884e-10
1.095486068e-07
2.944168253e-10
1.096680195e-07
3.575331609e-10
1.098101425e-07
4.074650425e-10
1.099728993e-07
4.428427465e-10
1.101541284e-07
4.626448619e-10
1.103516802e-07
4.662076688e-10
1.105635001e-07
4.532256336e-10
1.107876978e-07
4.237228703e-10
1.110225994e-07
3.780082932e-10
1.112667807e-07
3.166335505e-10
1.115190823e-07
2.403504188e-10
1.117786061e-07
1.500766552e-10
1.120447573e-07
4.679402028e-11
1.123171203e-07
-6.831696443e-11
1.12595548e-07
-1.941746497e-10
1.128801002e-07
-3.295735334e-10
1.131710032e-07
-4.733443343e-10
1.134686369e-07
-6.243221833e-10
1.137735105e-07
-7.813503391e-10
1.140862164e-07
-9.432952251e-10
1.144074234e-07
-1.10904227e-09
1.147378511e-07
-1.277491819e-09
1.150782422e-07
-1.447560092e-09
1.154293478e-07
-1.618160343e-09
1.157919067e-07
-1.788195403e-09
1.161666253e-07
-1.956548789e-09
1.165541596e-07
-2.122071796e-09
1.169550967e-07
-2.283571421e-09
1.173699344e-07
-2.439799507e-09
1.177990615e-07
-2.589442999e-09
1.182427363e-07
-2.731116154e-09
1.187010633e-07
-2.863355359e-09
1.191739704e-07
-2.984617111e-09
1.196611843e-07
-3.093279724e-09
1.201622058e-07
-3.187649265e-09
1.206762862e-07
-3.265970146e-09
1.212024037e-07
-3.326440859e-09
1.217392443e-07
-3.367235256e-09
1.222851848e-07
-3.386529554e-09
1.228382821e-07
-3.382534853e-09
1.233962686e-07
-3.353534791e-09
1.23956556e-07
-3.297927807e-09
1.245162488e-07
-3.214272795e-09
1.250721665e-07
-3.101336122e-09
1.256208763e-07
-2.958137915e-09
1.261587368e-07
-2.783995734e-09
-2.578563101e-09
1.266819496e-07
1.09341759e-07
3.439264039e-11
1.09377337e-07
1.006144852e-10
1.094364427e-07
1.60773688e-10
1.095183364e-07
2.125232896e-10
1.096219127e-07
2.539568894e-10
1.09745807e-07
2.83570751e-10
1.098884848e-07
3.001648207e-10
1.100483214e-07
3.028079853e-10
1.102236801e-07
2.908486335e-10
1.10412979e-07
2.639263825e-10
1.106147441e-07
2.219573813e-10
1.108276539e-07
1.650980494e-10
1.11050573e-07
9.371412358e-11
1.112825954e-07
8.327707368e-12
1.115229555e-07
-9.028364579e-11
1.117711466e-07
-2.013972757e-10
1.120269006e-07
-3.240712037e-10
1.122900914e-07
-4.573659554e-10
1.125608021e-07
-6.002847674e-10
1.128392638e-07
-7.518066526e-10
1.131258451e-07
-9.109038276e-10
1.134210389e-07
-1.07654437e-09
1.137254394e-07
-1.247695578e-09
1.140397218e-07
-1.423324466e-09
1.143646244e-07
-1.602394262e-09
1.147009245e-07
-1.783860099e-09
1.150494233e-07
-1.966659241e-09
1.154109285e-07
-2.149700792e-09
1.157862344e-07
-2.33185501e-09
1.16176103e-07
-2.511940701e-09
1.165812436e-07
-2.688712193e-09
1.170022909e-07
-2.860846831e-09
1.174397814e-07
-3.026933406e-09
1.178941279e-07
-3.185462314e-09
1.183655912e-07
-3.334818257e-09
1.188542506e-07
-3.47327627e-09
1.193599728e-07
-3.599001849e-09
1.198823793e-07
-3.710055922e-09
1.204208143e-07
-3.804405331e-09
1.209743127e-07
-3.879939513e-09
1.215415711e-07
-3.934494162e-09
1.221209235e-07
-3.965882423e-09
1.227103218e-07
-3.971933616e-09
1.233073257e-07
-3.950539004e-09
1.239091016e-07
-3.899703977e-09
1.245124342e-07
-3.817605557e-09
1.251137511e-07
-3.702652734e-09
1.257091597e-07
-3.553546303e-09
1.262944989e-07
-3.369335358e-09
-3.149467853e-09
1.268654029e-07
1.093401417e-07
2.425098156e-11
1.09370865e-07
6.98913786e-11
1.094220182e-07
1.096207009e-10
1.094931069e-07
1.414346292e-10
1.095833578e-07
1.63706102e-10
1.096917968e-07
1.751317307e-10
1.098173089e-07
1.746526364e-10
1.099586923e-07
1.614243492e-10
1.101147189e-07
1.34821693e-10
1.102841764e-07
9.446852806e-11
1.104659293e-07
4.020396769e-11
1.10658963e-07
-2.793608549e-11
1.108623926e-07
-1.097159282e-10
1.110754696e-07
-2.047494376e-10
1.112976854e-07
-3.12499524e-10
1.115286325e-07
-4.323444686e-10
1.117681173e-07
-5.635562206e-10
1.120160947e-07
-7.053436003e-10
1.122726812e-07
-8.568716701e-10
1.125381431e-07
-1.017268805e-09
1.128128796e-07
-1.185640419e-09
1.1309741e-07
-1.361074684e-09
1.13392358e-07
-1.54264337e-09
1.136984358e-07
-1.729401987e-09
1.140164289e-07
-1.920387308e-09
1.143471804e-07
-2.114611619e-09
1.146915748e-07
-2.311053731e-09
1.150505216e-07
-2.508647888e-09
1.154249377e-07
-2.70627143e-09
1.158157277e-07
-2.902730876e-09
1.162237623e-07
-3.096746958e-09
1.16649855e-07
-3.286939536e-09
1.170947349e-07
-3.471813134e-09
1.175590167e-07
-3.649743956e-09
1.18043168e-07
-3.818969327e-09
1.185474724e-07
-3.9775805e-09
1.190719903e-07
-4.123519865e-09
1.196165179e-07
-4.254583679e-09
1.201805437e-07
-4.368431371e-09
1.207632063e-07
-4.462602409e-09
1.213632535e-07
-4.53454183e-09
1.21979006e-07
-4.581635588e-09
1.226083281e-07
-4.601256291e-09
1.232486078e-07
-4.590818887e-09
1.23896749e-07
-4.547845193e-09
1.245491794e-07
-4.470036122e-09
1.252018758e-07
-4.355349317e-09
1.258504077e-07
-4.202077927e-09
1.264899982e-07
-4.008925489e-09
-3.775072631e-09
1.271156026e-07
1.093387646e-07
1.54864456e-11
1.093653703e-07
4.328582366e-11
1.094097763e-07
6.52149072e-11
1.094716787e-07
7.953232835e-11
1.095505539e-07
8.4830944e-11
1.096457152e-07
7.997043351e-11
1.097563426e-07
6.402523222e-11
1.098815465e-07
3.622027255e-11
1.100204504e-07
-4.082459045e-12
1.101721519e-07
-5.723342569e-11
1.103358026e-07
-1.234471331e-10
1.105106247e-07
-2.02758665e-10
1.106959534e-07
-2.950447876e-10
1.10891249e-07
-4.000450863e-10
1.110961205e-07
-5.173709451e-10
1.113103084e-07
-6.465323723e-10
1.115337059e-07
-7.869537392e-10
1.117663536e-07
-9.379914286e-10
1.120084342e-07
-1.098952322e-09
1.122602681e-07
-1.269102654e-09
1.125223041e-07
-1.447676291e-09
1.127951097e-07
-1.633880012e-09
1.130793613e-07
-1.82689476e-09
1.133758341e-07
-2.025874639e-09
1.136853902e-07
-2.229943344e-09
1.140089659e-07
-2.438187481e-09
1.143475589e-07
-2.649646894e-09
1.147022131e-07
-2.863302424e-09
1.15074003e-07
-3.078061523e-09
1.154640139e-07
-3.292741887e-09
1.158733205e-07
-3.506053581e-09
1.163029614e-07
-3.716580388e-09
1.167539096e-07
-3.922761254e-09
1.172270386e-07
-4.122872808e-09
1.177230833e-07
-4.315014025e-09
1.182425971e-07
-4.497094177e-09
1.187859024e-07
-4.666825319e-09
1.193530393e-07
-4.821720881e-09
1.199437096e-07
-4.959102041e-09
1.205572203e-07
-5.076113446e-09
1.211924279e-07
-5.169749717e-09
1.21847686e-07
-5.23689438e-09
1.225208017e-07
-5.274372774e-09
1.232090016e-07
-5.27901934e-09
1.239089147e-07
-5.247757978e-09
1.246165725e-07
-5.177693386e-09
1.253274341e-07
-5.066210768e-09
1.260364353e-07
-4.911079449e-09
1.26738063e-07
-4.710553748e-09
-4.463463903e-09
1.27426454e-07
1.093375727e-07
7.913874283e-12
1.093606529e-07
2.020569812e-11
1.093992614e-07
2.660653617e-11
1.094532082e-07
2.558556124e-11
1.095221422e-07
1.589703892e-11
1.0960566e-07
-3.547198652e-12
1.097031787e-07
-3.349348298e-11
1.098140661e-07
-7.466725216e-11
1.099376302e-07
-1.276467659e-10
1.100732249e-07
-1.928284136e-10
1.102202376e-07
-2.704602008e-10
1.10378119e-07
-3.606402581e-10
1.105464015e-07
-4.633273089e-10
1.107247128e-07
-5.783561829e-10
1.109127939e-07
-7.054519263e-10
1.111105077e-07
-8.442461089e-10
1.113178459e-07
-9.942918063e-10
1.115349322e-07
-1.155077666e-09
1.117620215e-07
-1.32604146e-09
1.119994984e-07
-1.506579258e-09
1.122478737e-07
-1.696051404e-09
1.125077802e-07
-1.893786206e-09
1.127799662e-07
-2.099080635e-09
1.130652898e-07
-2.3111983e-09
1.133647112e-07
-2.529364865e-09
1.136792839e-07
-2.752760374e-09
1.140101449e-07
-2.980508213e-09
1.143585032e-07
-3.211660899e-09
1.147256246e-07
-3.445183048e-09
1.151128146e-07
-3.679931796e-09
1.155213963e-07
-3.914635087e-09
1.159526845e-07
-4.147868413e-09
1.164079543e-07
-4.378030861e-09
1.168884029e-07
-4.603321484e-09
1.17395106e-07
-4.82171728e-09
1.179289659e-07
-5.030954145e-09
1.184906528e-07
-5.228512336e-09
1.190805401e-07
-5.411608324e-09
1.196986329e-07
-5.577195462e-09
1.203444949e-07
-5.721976066e-09
1.210171719e-07
-5.842427236e-09
1.217151199e-07
-5.934842508e-09
1.224361384e-07
-5.995391646e-09
1.23177319e-07
-6.020200319e-09
1.239350102e-07
-6.0054494e-09
1.247048084e-07
-5.947491365e-09
1.25481578e-07
-5.842979958e-09
1.262595063e-07
-5.689007445e-09
1.270321932e-07
-5.483240929e-09
-5.224047453e-09
1.277927757e-07
1.093365446e-07
1.369341033e-12
1.093565003e-07
2.50117581e-13
1.093900474e-07
-6.940546808e-12
1.094370277e-07
-2.139463415e-11
1.094972657e-07
-4.434082695e-11
1.095704035e-07