/*--------------------------------*- C++ -*----------------------------------*\
| =========                 |                                                 |
| \\      /  F ield         | foam-extend: Open Source CFD                    |
|  \\    /   O peration     | Version:     4.1                                |
|   \\  /    A nd           | Web:         http://www.foam-extend.org         |
|    \\/     M anipulation  |                                                 |
\*---------------------------------------------------------------------------*/
FoamFile
{
    version     2.0;
    format      ascii;
    class       volVectorField;
    location    "100000";
    object      U;
}
// * * * * * * * * * * * * * * * * * * * * * * * * * * * * * * * * * * * * * //

dimensions      [0 1 -1 0 0 0 0];

internalField   nonuniform List<vector> 
15920
(
(0.0002132421103 5.120270802e-06 0)
(0.0002058529362 1.130710185e-05 0)
(0.0001957369933 1.372339089e-05 0)
(0.000182206542 1.420366061e-05 0)
(0.0001677994515 1.375362823e-05 0)
(0.0001541692036 1.268123104e-05 0)
(0.0001415801791 1.117152903e-05 0)
(0.0001299516851 9.449020777e-06 0)
(0.0001193581565 7.712205126e-06 0)
(0.0001099202999 6.087904169e-06 0)
(0.0001016636011 4.644289112e-06 0)
(9.452666935e-05 3.412906776e-06 0)
(8.84165221e-05 2.39979918e-06 0)
(8.323398375e-05 1.592414848e-06 0)
(7.887622184e-05 9.673044993e-07 0)
(7.523862522e-05 4.967530874e-07 0)
(7.222002099e-05 1.529476268e-07 0)
(6.972696516e-05 -8.977487936e-08 0)
(6.767553168e-05 -2.538110768e-07 0)
(6.599166484e-05 -3.579160861e-07 0)
(6.461103859e-05 -4.173271795e-07 0)
(6.347863373e-05 -4.44153645e-07 0)
(6.254804272e-05 -4.47859681e-07 0)
(6.178060993e-05 -4.357573081e-07 0)
(6.11444556e-05 -4.133615406e-07 0)
(6.061350682e-05 -3.847306453e-07 0)
(6.016660225e-05 -3.527908669e-07 0)
(5.978667998e-05 -3.196051143e-07 0)
(5.946004571e-05 -2.865814963e-07 0)
(5.917572539e-05 -2.546332758e-07 0)
(5.892490621e-05 -2.243020136e-07 0)
(5.87004638e-05 -1.958533508e-07 0)
(5.849656865e-05 -1.693523883e-07 0)
(5.830836353e-05 -1.447234518e-07 0)
(5.813170342e-05 -1.217975535e-07 0)
(5.79629496e-05 -1.003498342e-07 0)
(5.779881012e-05 -8.012848695e-08 0)
(5.763621943e-05 -6.08762337e-08 0)
(5.747225132e-05 -4.234544252e-08 0)
(5.730405963e-05 -2.430822111e-08 0)
(5.712884188e-05 -6.563009212e-09 0)
(5.69438214e-05 1.106096577e-08 0)
(5.674624405e-05 2.870056232e-08 0)
(5.653338639e-05 4.645672604e-08 0)
(5.630257265e-05 6.439375528e-08 0)
(5.605119836e-05 8.253997944e-08 0)
(5.57767586e-05 1.008897673e-07 0)
(5.547687926e-05 1.194058031e-07 0)
(5.514935038e-05 1.380217414e-07 0)
(5.47921602e-05 1.566454936e-07 0)
(0.0002201180629 5.646858442e-06 0)
(0.0002251674981 1.294705999e-05 0)
(0.0002303398092 1.66129478e-05 0)
(0.0002340228345 1.855066496e-05 0)
(0.0002359383787 1.966384828e-05 0)
(0.0002363130029 2.007599227e-05 0)
(0.0002353272041 1.98325829e-05 0)
(0.0002331427762 1.907685893e-05 0)
(0.0002299898919 1.796707571e-05 0)
(0.0002261311304 1.662602749e-05 0)
(0.0002218034973 1.514902917e-05 0)
(0.0002172004348 1.361638977e-05 0)
(0.0002124781556 1.209419773e-05 0)
(0.0002077621146 1.063241697e-05 0)
(0.0002031488061 9.265498315e-06 0)
(0.0001987075813 8.014750185e-06 0)
(0.0001944846447 6.890885946e-06 0)
(0.0001905078878 5.896371398e-06 0)
(0.0001867911856 5.02761851e-06 0)
(0.0001833379123 4.276950804e-06 0)
(0.0001801438473 3.63422662e-06 0)
(0.0001771995539 3.088093778e-06 0)
(0.0001744922212 2.626916573e-06 0)
(0.0001720071448 2.239437106e-06 0)
(0.0001697287362 1.91513557e-06 0)
(0.0001676411772 1.644447342e-06 0)
(0.0001657288755 1.418895958e-06 0)
(0.0001639767802 1.231137827e-06 0)
(0.0001623705761 1.074932297e-06 0)
(0.0001608967821 9.45064567e-07 0)
(0.0001595427796 8.372442352e-07 0)
(0.0001582967937 7.479935384e-07 0)
(0.0001571478438 6.745339921e-07 0)
(0.0001560856755 6.146773409e-07 0)
(0.0001551006836 5.667245598e-07 0)
(0.000154183832 5.293748965e-07 0)
(0.0001533265766 5.01645608e-07 0)
(0.000152520794 4.828023274e-07 0)
(0.0001517587177 4.722994622e-07 0)
(0.0001510328833 4.697297001e-07 0)
(0.0001503360838 4.747815532e-07 0)
(0.0001496613347 4.872037249e-07 0)
(0.0001490018494 5.067752691e-07 0)
(0.0001483510241 5.332808004e-07 0)
(0.0001477024326 5.664901022e-07 0)
(0.0001470498307 6.061418162e-07 0)
(0.000146387167 6.519322697e-07 0)
(0.0001457086018 7.035067444e-07 0)
(0.000145008533 7.604530676e-07 0)
(0.0001442816277 8.222978432e-07 0)
(0.0002187781911 1.475200423e-06 0)
(0.0002200342794 4.41194426e-06 0)
(0.0002226108144 7.053281672e-06 0)
(0.0002259445697 9.413660311e-06 0)
(0.0002295030619 1.1514739e-05 0)
(0.0002330541047 1.324055733e-05 0)
(0.0002364293692 1.449483665e-05 0)
(0.0002394363994 1.527344781e-05 0)
(0.0002419271402 1.562225113e-05 0)
(0.0002438339297 1.559945635e-05 0)
(0.0002451499313 1.526884364e-05 0)
(0.0002459038919 1.469934152e-05 0)
(0.0002461475339 1.395948368e-05 0)
(0.00024594742 1.311098924e-05 0)
(0.0002453763477 1.220530374e-05 0)
(0.0002445061946 1.128299251e-05 0)
(0.0002434036342 1.037448086e-05 0)
(0.0002421281222 9.501265657e-06 0)
(0.000240731094 8.677359379e-06 0)
(0.0002392558408 7.91082473e-06 0)
(0.0002377378853 7.205229721e-06 0)
(0.0002362057001 6.560909818e-06 0)
(0.0002346815944 5.976001394e-06 0)
(0.0002331825821 5.447268101e-06 0)
(0.0002317211987 4.970687142e-06 0)
(0.0002303063495 4.541888738e-06 0)
(0.0002289440428 4.156486808e-06 0)
(0.0002276379728 3.810303341e-06 0)
(0.0002263899917 3.499502613e-06 0)
(0.0002252004995 3.220660399e-06 0)
(0.0002240687604 2.970789219e-06 0)
(0.0002229931523 2.747334013e-06 0)
(0.0002219713611 2.548148303e-06 0)
(0.0002210005296 2.371458428e-06 0)
(0.0002200773707 2.215821333e-06 0)
(0.0002191982523 2.080079726e-06 0)
(0.0002183592608 1.963316975e-06 0)
(0.0002175562483 1.864813201e-06 0)
(0.0002167848682 1.784003366e-06 0)
(0.0002160406032 1.720437929e-06 0)
(0.0002153187883 1.673746622e-06 0)
(0.000214614631 1.64360523e-06 0)
(0.0002139232304 1.629705502e-06 0)
(0.0002132395979 1.63172839e-06 0)
(0.0002125586788 1.649320622e-06 0)
(0.0002118753783 1.682074354e-06 0)
(0.0002111845892 1.729508706e-06 0)
(0.0002104812206 1.791055386e-06 0)
(0.0002097602313 1.866048063e-06 0)
(0.0002090166659 1.953714659e-06 0)
(0.0002187700381 1.495040249e-06 0)
(0.0002194933854 4.348528606e-06 0)
(0.0002207633042 6.764856156e-06 0)
(0.0002223962814 8.631385275e-06 0)
(0.0002242342738 1.00427366e-05 0)
(0.0002262444705 1.110234666e-05 0)
(0.0002284217965 1.185798993e-05 0)
(0.0002307097911 1.234233134e-05 0)
(0.0002330211378 1.259272591e-05 0)
(0.0002352771745 1.264457397e-05 0)
(0.0002374174192 1.252776396e-05 0)
(0.0002393949903 1.226997347e-05 0)
(0.0002411757642 1.189880816e-05 0)
(0.0002427400648 1.144091983e-05 0)
(0.0002440820616 1.092077111e-05 0)
(0.000245206936 1.036007814e-05 0)
(0.0002461276574 9.777607876e-06 0)
(0.0002468622426 9.189027582e-06 0)
(0.0002474315228 8.606859867e-06 0)
(0.000247857334 8.040630772e-06 0)
(0.0002481611528 7.497181726e-06 0)
(0.0002483631799 6.981065142e-06 0)
(0.0002484817967 6.494961164e-06 0)
(0.0002485332904 6.040075947e-06 0)
(0.0002485317867 5.616554672e-06 0)
(0.0002484893335 5.223824132e-06 0)
(0.0002484160476 4.860851193e-06 0)
(0.000248320283 4.526343119e-06 0)
(0.0002482088145 4.21890373e-06 0)
(0.0002480870268 3.937149973e-06 0)
(0.0002479590951 3.679793088e-06 0)
(0.0002478281479 3.445690389e-06 0)
(0.0002476964093 3.233873447e-06 0)
(0.0002475653196 3.043557985e-06 0)
(0.0002474356388 2.874140084e-06 0)
(0.0002473075312 2.725182476e-06 0)
(0.0002471806373 2.596393924e-06 0)
(0.0002470541321 2.487604199e-06 0)
(0.0002469267741 2.398736244e-06 0)
(0.0002467969475 2.329776963e-06 0)
(0.000246662698 2.280748143e-06 0)
(0.0002465217653 2.251677648e-06 0)
(0.0002463716132 2.242571598e-06 0)
(0.0002462094587 2.253388243e-06 0)
(0.0002460323012 2.284013762e-06 0)
(0.000245836952 2.334240196e-06 0)
(0.0002456200642 2.403745264e-06 0)
(0.0002453781677 2.49207499e-06 0)
(0.0002451077044 2.598629847e-06 0)
(0.0002448050662 2.722654607e-06 0)
(0.0002187108962 1.044768051e-06 0)
(0.0002191130858 3.036882253e-06 0)
(0.0002199210697 4.807246716e-06 0)
(0.0002210531634 6.297313022e-06 0)
(0.0002223753972 7.519431059e-06 0)
(0.0002238059089 8.498371011e-06 0)
(0.0002253104693 9.241944112e-06 0)
(0.0002268613894 9.757312872e-06 0)
(0.0002284262834 1.006488812e-05 0)
(0.0002299777049 1.019338318e-05 0)
(0.0002314968738 1.017164409e-05 0)
(0.0002329696728 1.002632443e-05 0)
(0.0002343838433 9.782336565e-06 0)
(0.0002357295158 9.462675254e-06 0)
(0.0002370002436 9.087782536e-06 0)
(0.0002381930061 8.675242918e-06 0)
(0.0002393076419 8.239827362e-06 0)
(0.0002403462944 7.793652868e-06 0)
(0.0002413129361 7.346370158e-06 0)
(0.0002422128756 6.905403043e-06 0)
(0.0002430522558 6.476243761e-06 0)
(0.0002438376061 6.062772594e-06 0)
(0.0002445754882 5.667570926e-06 0)
(0.0002452722306 5.292212042e-06 0)
(0.0002459337425 4.937527611e-06 0)
(0.0002465653956 4.603827179e-06 0)
(0.0002471719596 4.291070589e-06 0)
(0.0002477575746 3.999007687e-06 0)
(0.0002483257533 3.727291145e-06 0)
(0.0002488794037 3.475561823e-06 0)
(0.0002494208635 3.243508629e-06 0)
(0.0002499519396 3.030907736e-06 0)
(0.0002504739482 2.837644688e-06 0)
(0.0002509877535 2.663722934e-06 0)
(0.0002514938044 2.509262097e-06 0)
(0.0002519921662 2.374488245e-06 0)
(0.0002524825495 2.259717852e-06 0)
(0.0002529643348 2.165337873e-06 0)
(0.0002534365933 2.091781624e-06 0)
(0.0002538981064 2.039505081e-06 0)
(0.0002543473824 2.00896115e-06 0)
(0.0002547826721 2.000572013e-06 0)
(0.000255201985 2.014702456e-06 0)
(0.0002556031053 2.051634135e-06 0)
(0.0002559836095 2.111540514e-06 0)
(0.000256340886 2.194463223e-06 0)
(0.0002566721567 2.300294101e-06 0)
(0.0002569744993 2.428753514e-06 0)
(0.0002572448744 2.579373686e-06 0)
(0.000257480154 2.75148579e-06 0)
(0.0002186952812 8.037435962e-07 0)
(0.0002189786025 2.375961023e-06 0)
(0.0002195660263 3.836854715e-06 0)
(0.0002204185687 5.122040125e-06 0)
(0.0002214444644 6.204865264e-06 0)
(0.0002225741038 7.083488693e-06 0)
(0.0002237697453 7.762031354e-06 0)
(0.0002250038977 8.247764465e-06 0)
(0.0002262484731 8.554976373e-06 0)
(0.0002274787402 8.703940352e-06 0)
(0.0002286777318 8.716871062e-06 0)
(0.0002298353662 8.615636909e-06 0)
(0.0002309458716 8.421309596e-06 0)
(0.0002320064969 8.153827913e-06 0)
(0.000233017117 7.831347061e-06 0)
(0.0002339797255 7.469740954e-06 0)
(0.0002348977427 7.082465178e-06 0)
(0.0002357754428 6.680649777e-06 0)
(0.0002366175777 6.273279199e-06 0)
(0.0002374291078 5.867415796e-06 0)
(0.000238214975 5.468457929e-06 0)
(0.0002389799196 5.080412765e-06 0)
(0.0002397283492 4.706160241e-06 0)
(0.0002404642533 4.347693841e-06 0)
(0.0002411911546 4.006332885e-06 0)
(0.0002419120871 3.682904356e-06 0)
(0.000242629598 3.377894913e-06 0)
(0.0002433457636 3.09157499e-06 0)
(0.000244062211 2.824097794e-06 0)
(0.0002447801453 2.575574409e-06 0)
(0.0002455003806 2.346129282e-06 0)
(0.0002462233708 2.13593866e-06 0)
(0.0002469492375 1.9452536e-06 0)
(0.0002476777963 1.774412516e-06 0)
(0.0002484085799 1.623844505e-06 0)
(0.000249140857 1.494064891e-06 0)
(0.0002498736495 1.385662326e-06 0)
(0.0002506057449 1.299285452e-06 0)
(0.0002513357086 1.235616026e-06 0)
(0.0002520618958 1.195347973e-06 0)
(0.0002527824572 1.179166097e-06 0)
(0.0002534953465 1.187717901e-06 0)
(0.0002541983306 1.221585301e-06 0)
(0.0002548890005 1.281257308e-06 0)
(0.0002555647819 1.367101681e-06 0)
(0.0002562229519 1.479332777e-06 0)
(0.000256860651 1.618004845e-06 0)
(0.0002574748985 1.782977183e-06 0)
(0.0002580626164 1.973893407e-06 0)
(0.0002586206527 2.190166531e-06 0)
(0.0002186866947 6.359135611e-07 0)
(0.0002188976974 1.884944418e-06 0)
(0.0002193353528 3.059895941e-06 0)
(0.000219981368 4.110876704e-06 0)
(0.0002207793731 5.011662081e-06 0)
(0.0002216816517 5.756295656e-06 0)
(0.0002226576872 6.346651958e-06 0)
(0.0002236833581 6.786992904e-06 0)
(0.0002247344666 7.085023476e-06 0)
(0.0002257886281 7.252588224e-06 0)
(0.000226828504 7.304146331e-06 0)
(0.0002278422057 7.25505585e-06 0)
(0.0002288220298 7.120749686e-06 0)
(0.0002297634802 6.916319283e-06 0)
(0.0002306648431 6.656049233e-06 0)
(0.0002315267822 6.352984194e-06 0)
(0.0002323517643 6.01868467e-06 0)
(0.0002331434734 5.663156297e-06 0)
(0.0002339063391 5.294873211e-06 0)
(0.0002346451734 4.920856043e-06 0)
(0.0002353648817 4.546795745e-06 0)
(0.0002360702352 4.177211886e-06 0)
(0.0002367657073 3.815626834e-06 0)
(0.0002374553661 3.464740921e-06 0)
(0.0002381428125 3.126597666e-06 0)
(0.0002388311519 2.802733404e-06 0)
(0.0002395229918 2.494312617e-06 0)
(0.0002402204532 2.202241271e-06 0)
(0.0002409251905 1.92726089e-06 0)
(0.0002416384195 1.670013851e-06 0)
(0.0002423609487 1.431110422e-06 0)
(0.0002430932087 1.211174022e-06 0)
(0.0002438352812 1.010863577e-06 0)
(0.0002445869263 8.3089142e-07 0)
(0.0002453476062 6.720332061e-07 0)
(0.000246116503 5.351271631e-07 0)
(0.0002468925442 4.210680911e-07 0)
(0.0002476744061 3.307898489e-07 0)
(0.0002484605086 2.652540645e-07 0)
(0.0002492490545 2.254245536e-07 0)
(0.0002500380387 2.122377815e-07 0)
(0.0002508252521 2.265786445e-07 0)
(0.0002516082948 2.692536686e-07 0)
(0.0002523845889 3.409618229e-07 0)
(0.0002531513832 4.422660912e-07 0)
(0.0002539057804 5.735698909e-07 0)
(0.0002546447556 7.350724346e-07 0)
(0.0002553651592 9.267563769e-07 0)
(0.0002560637573 1.148367027e-06 0)
(0.0002567372588 1.399388552e-06 0)
(0.0002186803449 5.083721535e-07 0)
(0.0002188412446 1.507579437e-06 0)
(0.0002191772173 2.454891122e-06 0)
(0.0002196805148 3.315703091e-06 0)
(0.0002203147893 4.068174134e-06 0)
(0.0002210463476 4.702886606e-06 0)
(0.0002218509414 5.216891958e-06 0)
(0.0002227084878 5.610418224e-06 0)
(0.0002235995833 5.886951277e-06 0)
(0.0002245063249 6.053557947e-06 0)
(0.000225414075 6.119993916e-06 0)
(0.0002263118977 6.097399496e-06 0)
(0.0002271919882 5.997432533e-06 0)
(0.0002280490946 5.831802707e-06 0)
(0.0002288802184 5.611898462e-06 0)
(0.0002296843639 5.34843532e-06 0)
(0.0002304621801 5.051200803e-06 0)
(0.0002312155553 4.728923158e-06 0)
(0.0002319472506 4.38923067e-06 0)
(0.0002326605978 4.038668728e-06 0)
(0.0002333592456 3.682760311e-06 0)
(0.0002340469465 3.326100458e-06 0)
(0.0002347273891 2.972470045e-06 0)
(0.0002354040706 2.624959821e-06 0)
(0.0002360802063 2.286090806e-06 0)
(0.0002367586741 1.957926458e-06 0)
(0.0002374419844 1.642180815e-06 0)
(0.000238132262 1.340307018e-06 0)
(0.00023883123 1.053603087e-06 0)
(0.0002395402245 7.832272563e-07 0)
(0.0002402602182 5.302773208e-07 0)
(0.0002409918423 2.958363149e-07 0)
(0.0002417353658 8.100243183e-08 0)
(0.0002424907156 -1.13095737e-07 0)
(0.000243257502 -2.852913042e-07 0)
(0.0002440350342 -4.343777368e-07 0)
(0.0002448223204 -5.591128795e-07 0)
(0.0002456180904 -6.58234101e-07 0)
(0.0002464208207 -7.30467681e-07 0)
(0.0002472287181 -7.745535284e-07 0)
(0.0002480397289 -7.892746082e-07 0)
(0.0002488515568 -7.734816498e-07 0)
(0.0002496616724 -7.261212506e-07 0)
(0.0002504673272 -6.462672426e-07 0)
(0.0002512655811 -5.331505735e-07 0)
(0.0002520533106 -3.861836903e-07 0)
(0.0002528272322 -2.050160068e-07 0)
(0.000253583951 1.045336538e-08 0)
(0.0002543199676 2.600482478e-07 0)
(0.0002550317391 5.432908994e-07 0)
(0.000218676048 4.096640811e-07 0)
(0.0002188029783 1.215307993e-06 0)
(0.0002190690052 1.983033018e-06 0)
(0.0002194709181 2.687530607e-06 0)
(0.0002199837372 3.310598974e-06 0)
(0.0002205834651 3.842000617e-06 0)
(0.0002212519235 4.27683315e-06 0)
(0.000221973421 4.613612315e-06 0)
(0.000222732696 4.853825186e-06 0)
(0.0002235154998 5.001789918e-06 0)
(0.0002243097357 5.064062166e-06 0)
(0.0002251058619 5.048598331e-06 0)
(0.0002258966766 4.964088569e-06 0)
(0.0002266769993 4.819527907e-06 0)
(0.0002274434556 4.623889788e-06 0)
(0.0002281942902 4.385834493e-06 0)
(0.0002289291257 4.11347901e-06 0)
(0.000229648683 3.814253334e-06 0)
(0.0002303545139 3.494831697e-06 0)
(0.0002310487665 3.16111617e-06 0)
(0.0002317339828 2.818256996e-06 0)
(0.0002324129214 2.470703171e-06 0)
(0.0002330884119 2.122271127e-06 0)
(0.0002337632362 1.776235925e-06 0)
(0.0002344400326 1.435381648e-06 0)
(0.0002351212364 1.102113886e-06 0)
(0.0002358090332 7.78545551e-07 0)
(0.0002365053525 4.665560956e-07 0)
(0.0002372118067 1.678277582e-07 0)
(0.0002379296537 -1.160350173e-07 0)
(0.0002386598731 -3.834939406e-07 0)
(0.0002394031062 -6.3304933e-07 0)
(0.0002401596816 -8.632000265e-07 0)
(0.0002409296223 -1.072422518e-06 0)
(0.0002417126413 -1.259163416e-06 0)
(0.0002425081444 -1.421837443e-06 0)
(0.0002433152302 -1.558833664e-06 0)
(0.0002441326941 -1.668522684e-06 0)
(0.0002449590295 -1.749279121e-06 0)
(0.0002457924285 -1.799500739e-06 0)
(0.0002466307896 -1.817630984e-06 0)
(0.0002474717251 -1.802190734e-06 0)
(0.0002483125693 -1.751812268e-06 0)
(0.0002491503902 -1.665274523e-06 0)
(0.0002499820073 -1.541541407e-06 0)
(0.0002508040099 -1.3798056e-06 0)
(0.0002516127871 -1.179507003e-06 0)
(0.0002524045605 -9.403785446e-07 0)
(0.0002531754204 -6.624802705e-07 0)
(0.0002539213432 -3.462229586e-07 0)
(0.000218672964 3.311891175e-07 0)
(0.0002187754281 9.820386141e-07 0)
(0.0002189905719 1.603306298e-06 0)
(0.0002193174173 2.175951356e-06 0)
(0.0002197382444 2.685437061e-06 0)
(0.0002202359269 3.122579003e-06 0)
(0.0002207971879 3.482167725e-06 0)
(0.0002214100133 3.761828219e-06 0)
(0.0002220623622 3.961611035e-06 0)
(0.0002227427946 4.08380045e-06 0)
(0.0002234413575 4.132543815e-06 0)
(0.0002241499176 4.113329269e-06 0)
(0.0002248620839 4.03249929e-06 0)
(0.0002255730434 3.89687981e-06 0)
(0.0002262794288 3.713489539e-06 0)
(0.0002269791888 3.489291768e-06 0)
(0.000227671421 3.230992303e-06 0)
(0.0002283561753 2.944896009e-06 0)
(0.0002290342556 2.636819393e-06 0)
(0.0002297070372 2.312049681e-06 0)
(0.0002303763047 1.975336167e-06 0)
(0.0002310441068 1.63091107e-06 0)
(0.0002317126446 1.282497234e-06 0)
(0.0002323841269 9.334795213e-07 0)
(0.0002330607039 5.867943712e-07 0)
(0.0002337444637 2.450330919e-07 0)
(0.0002344373248 -8.942485838e-08 0)
(0.0002351409479 -4.143792278e-07 0)
(0.0002358567809 -7.278070039e-07 0)
(0.0002365860661 -1.027746392e-06 0)
(0.0002373297402 -1.312288454e-06 0)
(0.0002380884596 -1.579552523e-06 0)
(0.000238862601 -1.827657572e-06 0)
(0.0002396522456 -2.054699753e-06 0)
(0.0002404571689 -2.258741703e-06 0)
(0.0002412768346 -2.437811114e-06 0)
(0.0002421103893 -2.589905614e-06 0)
(0.0002429566563 -2.713003588e-06 0)
(0.0002438141302 -2.805083373e-06 0)
(0.0002446809715 -2.864145944e-06 0)
(0.0002455550052 -2.888243641e-06 0)
(0.0002464337233 -2.875515085e-06 0)
(0.0002473142896 -2.824223291e-06 0)
(0.0002481935505 -2.732796367e-06 0)
(0.0002490680499 -2.599870365e-06 0)
(0.0002499340513 -2.424333425e-06 0)
(0.0002507875657 -2.205367628e-06 0)
(0.0002516243887 -1.942493533e-06 0)
(0.0002524401441 -1.635604451e-06 0)
(0.000253230328 -1.284998033e-06 0)
(0.0002186706515 2.674033925e-07 0)
(0.0002187548323 7.919369382e-07 0)
(0.0002189318818 1.292293407e-06 0)
(0.0002192020474 1.753899197e-06 0)
(0.000219552392 2.165233457e-06 0)
(0.0002199704701 2.518412444e-06 0)
(0.0002204465863 2.808372107e-06 0)
(0.0002209716318 3.032247338e-06 0)
(0.0002215361897 3.189156713e-06 0)
(0.0002221311568 3.280062115e-06 0)
(0.0002227484681 3.307504794e-06 0)
(0.0002233813542 3.275243813e-06 0)
(0.0002240243169 3.187897735e-06 0)
(0.0002246730564 3.050644405e-06 0)
(0.0002253244101 2.868975157e-06 0)
(0.0002259762761 2.648485407e-06 0)
(0.0002266275011 2.394701725e-06 0)
(0.0002272777425 2.112950072e-06 0)
(0.000227927326 1.808266118e-06 0)
(0.0002285771075 1.485338879e-06 0)
(0.0002292283477 1.14848797e-06 0)
(0.0002298825581 8.016747109e-07 0)
(0.0002305415433 4.485194238e-07 0)
(0.0002312071524 9.222160979e-08 0)
(0.0002318810803 -2.642040747e-07 0)
(0.0002325651131 -6.17954002e-07 0)
(0.0002332609966 -9.664709793e-07 0)
(0.0002339702764 -1.30735756e-06 0)
(0.0002346943159 -1.63828593e-06 0)
(0.0002354342904 -1.957020251e-06 0)
(0.0002361911406 -2.261355512e-06 0)
(0.0002369655622 -2.549081359e-06 0)
(0.0002377579926 -2.817964135e-06 0)
(0.0002385685893 -3.065732206e-06 0)
(0.0002393972096 -3.290066121e-06 0)
(0.0002402433958 -3.488596231e-06 0)
(0.0002411063596 -3.65890824e-06 0)
(0.0002419849673 -3.798556461e-06 0)
(0.0002428777251 -3.905084097e-06 0)
(0.0002437827674 -3.976049762e-06 0)
(0.0002446978475 -4.009059965e-06 0)
(0.0002456203328 -4.001808058e-06 0)
(0.0002465472052 -3.952118817e-06 0)
(0.0002474750674 -3.857997149e-06 0)
(0.0002484001564 -3.717679538e-06 0)
(0.000249318366 -3.529686815e-06 0)
(0.0002502252769 -3.292876735e-06 0)
(0.0002511161972 -3.006495704e-06 0)
(0.0002519862109 -2.670225614e-06 0)
(0.0002528302338 -2.284224192e-06 0)
(0.000218668879 2.146942787e-07 0)
(0.0002187390706 6.345402101e-07 0)
(0.0002188869199 1.03380392e-06 0)
(0.0002191133396 1.401072537e-06 0)
(0.0002194086372 1.727112345e-06 0)
(0.0002197636106 2.005249752e-06 0)
(0.0002201711883 2.230839157e-06 0)
(0.0002206245507 2.400924778e-06 0)
(0.00022111642 2.514151456e-06 0)
(0.0002216396182 2.570671971e-06 0)
(0.0002221876731 2.571951431e-06 0)
(0.0002227550318 2.52051126e-06 0)
(0.0002233370629 2.41967367e-06 0)
(0.0002239300358 2.273334183e-06 0)
(0.0002245311067 2.085764571e-06 0)
(0.0002251382806 1.861438652e-06 0)
(0.000225750343 1.604889488e-06 0)
(0.000226366765 1.320583354e-06 0)
(0.0002269875972 1.012846614e-06 0)
(0.000227613368 6.858149003e-07 0)
(0.0002282450047 3.43383292e-07 0)
(0.0002288837443 -1.08177674e-08 0)
(0.0002295308959 -3.733525313e-07 0)
(0.0002301879714 -7.411140222e-07 0)
(0.0002308567007 -1.111100499e-06 0)
(0.0002315386729 -1.480448494e-06 0)
(0.0002322353787 -1.846487489e-06 0)
(0.0002329482779 -2.206657104e-06 0)
(0.0002336787189 -2.558444855e-06 0)
(0.0002344278834 -2.89937198e-06 0)
(0.0002351967639 -3.226957761e-06 0)
(0.0002359861376 -3.538689277e-06 0)
(0.0002367965404 -3.832002962e-06 0)
(0.0002376282407 -4.104270422e-06 0)
(0.0002384812132 -4.352788741e-06 0)
(0.0002393551131 -4.574778492e-06 0)
(0.0002402492508 -4.767390248e-06 0)
(0.000241162566 -4.92771906e-06 0)
(0.0002420936042 -5.052826724e-06 0)
(0.0002430404952 -5.139771995e-06 0)
(0.0002440009352 -5.185648339e-06 0)
(0.0002449721734 -5.187629125e-06 0)
(0.0002459510051 -5.143019907e-06 0)
(0.0002469337733 -5.049316951e-06 0)
(0.0002479163792 -4.904270235e-06 0)
(0.0002488943039 -4.705948374e-06 0)
(0.0002498626409 -4.452803429e-06 0)
(0.0002508161409 -4.143734308e-06 0)
(0.0002517492677 -3.778145799e-06 0)
(0.0002526562648 -3.355999224e-06 0)
(0.0002186674898 1.705419948e-07 0)
(0.0002187267286 5.024534563e-07 0)
(0.0002188516799 8.161683512e-07 0)
(0.0002190436186 1.102555466e-06 0)
(0.0002192951451 1.354127439e-06 0)
(0.0002195993692 1.56527167e-06 0)
(0.0002199511434 1.731859692e-06 0)
(0.000220345407 1.851047234e-06 0)
(0.000220776577 1.921255692e-06 0)
(0.0002212390292 1.942125618e-06 0)
(0.0002217276136 1.914382077e-06 0)
(0.0002222378369 1.839655083e-06 0)
(0.0002227658763 1.720299324e-06 0)
(0.0002233085849 1.559226506e-06 0)
(0.0002238635014 1.35975177e-06 0)
(0.0002244288435 1.125438905e-06 0)
(0.0002250034574 8.600108289e-07 0)
(0.0002255867645 5.67221178e-07 0)
(0.0002261787141 2.507650617e-07 0)
(0.0002267796711 -8.575539711e-08 0)
(0.000227390315 -4.38852984e-07 0)
(0.0002280116362 -8.051954261e-07 0)
(0.0002286448538 -1.181609009e-06 0)
(0.0002292913407 -1.56497742e-06 0)
(0.0002299525736 -1.952394652e-06 0)
(0.0002306300275 -2.341090195e-06 0)
(0.0002313251786 -2.728335035e-06 0)
(0.000232039482 -3.111442165e-06 0)
(0.0002327743068 -3.487749557e-06 0)
(0.0002335308963 -3.854584113e-06 0)
(0.0002343103411 -4.209231524e-06 0)
(0.000235113546 -4.548910611e-06 0)
(0.0002359411957 -4.870752033e-06 0)
(0.0002367937217 -5.171782518e-06 0)
(0.0002376712663 -5.448915603e-06 0)
(0.0002385736469 -5.698949991e-06 0)
(0.0002395003194 -5.918576113e-06 0)
(0.0002404503421 -6.104391331e-06 0)
(0.000241422341 -6.252924425e-06 0)
(0.0002424144762 -6.360669774e-06 0)
(0.0002434244126 -6.424131157e-06 0)
(0.0002444492965 -6.439874907e-06 0)
(0.0002454857395 -6.404591969e-06 0)
(0.0002465298126 -6.315168249e-06 0)
(0.0002475770522 -6.168761785e-06 0)
(0.0002486224796 -5.962883854e-06 0)
(0.000249660636 -5.695480621e-06 0)
(0.0002506856316 -5.365012576e-06 0)
(0.0002516912109 -4.970528642e-06 0)
(0.000252670832 -4.511730609e-06 0)
(0.0002186663778 1.331446565e-07 0)
(0.0002187168599 3.903815352e-07 0)
(0.000218823486 6.309859487e-07 0)
(0.0002189877234 8.47504692e-07 0)
(0.0002192038427 1.033785299e-06 0)
(0.0002194666317 1.185095135e-06 0)
(0.0002197723544 1.297807539e-06 0)
(0.0002201172891 1.369271536e-06 0)
(0.0002204971882 1.397830407e-06 0)
(0.0002209076826 1.382812536e-06 0)
(0.000221344717 1.324446329e-06 0)
(0.0002218047061 1.223734397e-06 0)
(0.0002222845551 1.082322339e-06 0)
(0.0002227816792 9.023727474e-07 0)
(0.00022329401 6.864693397e-07 0)
(0.0002238200403 4.374500954e-07 0)
(0.0002243587931 1.583302285e-07 0)
(0.0002249097216 -1.477551674e-07 0)
(0.0002254727138 -4.776326122e-07 0)
(0.0002260480762 -8.281612659e-07 0)
(0.0002266364494 -1.196241026e-06 0)
(0.0002272387331 -1.578823317e-06 0)
(0.0002278560363 -1.972959545e-06 0)
(0.0002284896303 -2.375767044e-06 0)
(0.0002291409166 -2.784447634e-06 0)
(0.0002298113719 -3.19624717e-06 0)
(0.0002305024993 -3.608424156e-06 0)
(0.0002312157964 -4.018240471e-06 0)
(0.0002319527186 -4.42293399e-06 0)
(0.0002327146381 -4.819684384e-06 0)
(0.000233502807 -5.205584699e-06 0)
(0.0002343183196 -5.577615649e-06 0)
(0.0002351620728 -5.932622885e-06 0)
(0.000236034724 -6.267299525e-06 0)
(0.0002369366471 -6.578175173e-06 0)
(0.0002378678865 -6.861612574e-06 0)
(0.0002388281089 -7.11381317e-06 0)
(0.0002398165545 -7.330832645e-06 0)
(0.0002408319876 -7.508607277e-06 0)
(0.0002418726498 -7.642991886e-06 0)
(0.0002429362163 -7.729810021e-06 0)
(0.0002440197589 -7.764916488e-06 0)
(0.000245119718 -7.744271624e-06 0)
(0.0002462318865 -7.664026475e-06 0)
(0.0002473514083 -7.520617583e-06 0)
(0.0002484727946 -7.310868405e-06 0)
(0.0002495899592 -7.032092838e-06 0)
(0.000250696274 -6.682196515e-06 0)
(0.0002517846444 -6.259771809e-06 0)
(0.0002528476051 -5.764180979e-06 0)
(0.0002186654703 1.011904752e-07 0)
(0.0002187088129 2.944600887e-07 0)
(0.0002188004869 4.720834677e-07 0)
(0.000218942051 6.278581929e-07 0)
(0.0002191290257 7.566518035e-07 0)
(0.000219357442 8.544373071e-07 0)
(0.0002196246077 9.180334626e-07 0)
(0.0002199278152 9.450148029e-07 0)
(0.0002202638608 9.337431606e-07 0)
(0.0002206293867 8.833793159e-07 0)
(0.0002210212449 7.938219982e-07 0)
(0.0002214366232 6.656184532e-07 0)
(0.0002218730627 4.998870149e-07 0)
(0.0002223285162 2.982243333e-07 0)
(0.0002228013143 6.257792879e-08 0)
(0.0002232901794 -2.047672046e-07 0)
(0.0002237943128 -5.013528494e-07 0)
(0.0002243133424 -8.245744172e-07 0)
(0.0002248472483 -1.171725008e-06 0)
(0.0002253963375 -1.540063397e-06 0)
(0.0002259612246 -1.926855259e-06 0)
(0.0002265427817 -2.329378556e-06 0)
(0.0002271421015 -2.744932185e-06 0)
(0.0002277604642 -3.17082942e-06 0)
(0.0002283992958 -3.604394289e-06 0)
(0.0002290601217 -4.042952713e-06 0)
(0.000229744529 -4.483807761e-06 0)
(0.0002304541345 -4.924214189e-06 0)
(0.0002311905498 -5.361352054e-06 0)
(0.0002319553409 -5.792296531e-06 0)
(0.0002327499886 -6.213987448e-06 0)
(0.0002335758477 -6.623200428e-06 0)
(0.000234434101 -7.01652079e-06 0)
(0.0002353257102 -7.390322103e-06 0)
(0.0002362513624 -7.740751215e-06 0)
(0.0002372114127 -8.06372147e-06 0)
(0.0002382058227 -8.354915782e-06 0)
(0.000239234097 -8.609801014e-06 0)
(0.0002402952179 -8.82365495e-06 0)
(0.0002413875807 -8.991607304e-06 0)
(0.0002425089327 -9.108696229e-06 0)
(0.0002436563181 -9.169941172e-06 0)
(0.0002448260336 -9.170431706e-06 0)
(0.000246013598 -9.105431156e-06 0)
(0.0002472137396 -8.970493591e-06 0)
(0.000248420406 -8.761591266e-06 0)
(0.0002496267991 -8.475246831e-06 0)
(0.0002508254369 -8.108663495e-06 0)
(0.000252008242 -7.6598476e-06 0)
(0.0002531666567 -7.127717544e-06 0)
(0.000218664715 7.370994245e-08 0)
(0.0002187021219 2.118261776e-07 0)
(0.000218781364 3.348576484e-07 0)
(0.0002189040273 4.375443648e-07 0)
(0.0002190665778 5.155485158e-07 0)
(0.0002192659812 5.654198455e-07 0)
(0.000219500337 5.84364506e-07 0)
(0.0002197677266 5.701646137e-07 0)
(0.0002200657758 5.212120109e-07 0)
(0.0002203919298 4.365701986e-07 0)
(0.0002207437563 3.159354291e-07 0)
(0.000221119084 1.595467504e-07 0)
(0.0002215160259 -3.187291612e-08 0)
(0.0002219329421 -2.571757054e-07 0)
(0.0002223685533 -5.148857877e-07 0)
(0.0002228219477 -8.032029147e-07 0)
(0.0002232925238 -1.120105012e-06 0)
(0.0002237800427 -1.463426829e-06 0)
(0.0002242845856 -1.830901742e-06 0)
(0.0002248065357 -2.22018364e-06 0)
(0.0002253465644 -2.628878738e-06 0)
(0.0002259055991 -3.054560532e-06 0)
(0.0002264847904 -3.494775212e-06 0)
(0.0002270854817 -3.947045098e-06 0)
(0.0002277091785 -4.408864078e-06 0)
(0.0002283575173 -4.877683419e-06 0)
(0.0002290322333 -5.350888061e-06 0)
(0.0002297351286 -5.825770508e-06 0)
(0.0002304680381 -6.299502349e-06 0)
(0.0002312327926 -6.769101648e-06 0)
(0.0002320311777 -7.23139854e-06 0)
(0.0002328648891 -7.683001347e-06 0)
(0.0002337354822 -8.120264786e-06 0)
(0.0002346443154 -8.539262213e-06 0)
(0.0002355924872 -8.935764105e-06 0)
(0.0002365807665 -9.305224996e-06 0)
(0.000237609517 -9.642781113e-06 0)
(0.0002386786162 -9.943260981e-06 0)
(0.0002397873702 -1.02012111e-05 0)
(0.0002409344284 -1.041093873e-05 0)
(0.0002421176985 -1.056657408e-05 0)
(0.0002433342687 -1.066215389e-05 0)
(0.0002445803407 -1.069172701e-05 0)
(0.0002458511788 -1.06494807e-05 0)
(0.0002471410813 -1.052988525e-05 0)
(0.0002484433789 -1.032785421e-05 0)
(0.0002497504661 -1.003891441e-05 0)
(0.0002510538699 -9.659375989e-06 0)
(0.000252344354 -9.186492941e-06 0)
(0.0002536120595 -8.61860589e-06 0)
(0.0002186640729 4.997868933e-08 0)
(0.0002186964357 1.403406874e-07 0)
(0.000218765125 2.15888975e-07 0)
(0.0002188717385 2.720844033e-07 0)
(0.0002190134962 3.051665391e-07 0)
(0.0002191880761 3.120928253e-07 0)