/*--------------------------------*- C++ -*----------------------------------*\
| =========                 |                                                 |
| \\      /  F ield         | foam-extend: Open Source CFD                    |
|  \\    /   O peration     | Version:     4.1                                |
|   \\  /    A nd           | Web:         http://www.foam-extend.org         |
|    \\/     M anipulation  |                                                 |
\*---------------------------------------------------------------------------*/
FoamFile
{
    version     2.0;
    format      ascii;
    class       volVectorField;
    location    "100000";
    object      vorticity;
}
// * * * * * * * * * * * * * * * * * * * * * * * * * * * * * * * * * * * * * //

dimensions      [0 0 -1 0 0 0 0];

internalField   nonuniform List<vector> 
15920
(
(0 -0 -0.008256519147)
(0 -0 -0.008405330685)
(0 -0 -0.008449122081)
(0 -0 -0.008323831597)
(0 -0 -0.008112817343)
(0 -0 -0.007874196609)
(0 -0 -0.007618952921)
(0 -0 -0.007348372322)
(0 -0 -0.007070988882)
(0 -0 -0.006797726506)
(0 -0 -0.006536216903)
(0 -0 -0.006290654331)
(0 -0 -0.006063405851)
(0 -0 -0.005855734333)
(0 -0 -0.005667892103)
(0 -0 -0.005499283051)
(0 -0 -0.005348756514)
(0 -0 -0.005214866026)
(0 -0 -0.005096037875)
(0 -0 -0.004990679445)
(0 -0 -0.004897253656)
(0 -0 -0.004814327064)
(0 -0 -0.004740595371)
(0 -0 -0.004674892641)
(0 -0 -0.00461618817)
(0 -0 -0.004563579414)
(0 -0 -0.004516281417)
(0 -0 -0.004473613969)
(0 -0 -0.004434988141)
(0 -0 -0.004399893163)
(0 -0 -0.004367884218)
(0 -0 -0.004338571408)
(0 -0 -0.004311610001)
(0 -0 -0.004286691911)
(0 -0 -0.004263538401)
(0 -0 -0.004241893905)
(0 -0 -0.004221520894)
(0 -0 -0.004202195693)
(0 -0 -0.00418370518)
(0 -0 -0.004165844297)
(0 -0 -0.004148414283)
(0 -0 -0.004131221533)
(0 -0 -0.004114076975)
(0 -0 -0.00409679588)
(0 -0 -0.004079198024)
(0 -0 -0.004061108181)
(0 -0 -0.004042356866)
(0 -0 -0.004022781321)
(0 -0 -0.004002226676)
(0 -0 -0.003980547224)
(0 -0 0.0003541263435)
(0 -0 -9.474629354e-06)
(0 -0 -0.0003973862987)
(0 -0 -0.0007984880436)
(0 -0 -0.001195939024)
(0 -0 -0.001573479658)
(0 -0 -0.001921962134)
(0 -0 -0.002236331967)
(0 -0 -0.002512650462)
(0 -0 -0.002748723758)
(0 -0 -0.002944967548)
(0 -0 -0.003103915236)
(0 -0 -0.003229219556)
(0 -0 -0.003324986211)
(0 -0 -0.003395444187)
(0 -0 -0.003444716697)
(0 -0 -0.003476631733)
(0 -0 -0.003494604828)
(0 -0 -0.003501596761)
(0 -0 -0.003500118316)
(0 -0 -0.00349225836)
(0 -0 -0.003479724078)
(0 -0 -0.00346388745)
(0 -0 -0.003445833969)
(0 -0 -0.003426409607)
(0 -0 -0.003406262843)
(0 -0 -0.003385881548)
(0 -0 -0.003365624948)
(0 -0 -0.003345750751)
(0 -0 -0.003326437684)
(0 -0 -0.00330780386)
(0 -0 -0.003289921526)
(0 -0 -0.003272828754)
(0 -0 -0.003256538558)
(0 -0 -0.003241045907)
(0 -0 -0.003226333029)
(0 -0 -0.003212373329)
(0 -0 -0.003199134231)
(0 -0 -0.003186579152)
(0 -0 -0.003174668819)
(0 -0 -0.003163362079)
(0 -0 -0.003152616349)
(0 -0 -0.003142387801)
(0 -0 -0.00313263136)
(0 -0 -0.003123300597)
(0 -0 -0.003114347544)
(0 -0 -0.003105722488)
(0 -0 -0.003097373808)
(0 -0 -0.003089247841)
(0 -0 -0.003081288806)
(0 -0 0.0001741391139)
(0 -0 0.0002529342856)
(0 -0 0.0003165730026)
(0 -0 0.0003440674971)
(0 -0 0.0003297545231)
(0 -0 0.0002758730882)
(0 -0 0.0001889304139)
(0 -0 7.68450632e-05)
(0 -0 -5.247470415e-05)
(0 -0 -0.0001917560703)
(0 -0 -0.0003347813077)
(0 -0 -0.0004766251094)
(0 -0 -0.0006136609804)
(0 -0 -0.0007434135028)
(0 -0 -0.0008643650275)
(0 -0 -0.000975757666)
(0 -0 -0.001077403424)
(0 -0 -0.001169515134)
(0 -0 -0.001252567769)
(0 -0 -0.001327191675)
(0 -0 -0.001394093983)
(0 -0 -0.001454003229)
(0 -0 -0.001507632553)
(0 -0 -0.001555655767)
(0 -0 -0.001598695493)
(0 -0 -0.001637318134)
(0 -0 -0.001672033077)
(0 -0 -0.001703294662)
(0 -0 -0.001731505842)
(0 -0 -0.001757022728)
(0 -0 -0.001780159469)
(0 -0 -0.001801193108)
(0 -0 -0.0018203682)
(0 -0 -0.001837901056)
(0 -0 -0.00185398357)
(0 -0 -0.001868786594)
(0 -0 -0.001882462879)
(0 -0 -0.001895149603)
(0 -0 -0.001906970511)
(0 -0 -0.001918037703)
(0 -0 -0.001928453102)
(0 -0 -0.00193830964)
(0 -0 -0.001947692197)
(0 -0 -0.001956678314)
(0 -0 -0.001965338722)
(0 -0 -0.001973737723)
(0 -0 -0.001981933419)
(0 -0 -0.001989977834)
(0 -0 -0.001997916946)
(0 -0 -0.002005790671)
(0 -0 0.0001474351208)
(0 -0 0.0001501692702)
(0 -0 0.000160866311)
(0 -0 0.0001797751383)
(0 -0 0.0002043273274)
(0 -0 0.0002303452498)
(0 -0 0.0002533776153)
(0 -0 0.0002698686008)
(0 -0 0.0002775732023)
(0 -0 0.0002755004464)
(0 -0 0.0002636961383)
(0 -0 0.0002429604872)
(0 -0 0.0002145474702)
(0 -0 0.0001799071575)
(0 -0 0.0001405010405)
(0 -0 9.768469035e-05)
(0 -0 5.264358192e-05)
(0 -0 6.367856616e-06)
(0 -0 -4.034676164e-05)
(0 -0 -8.68826509e-05)
(0 -0 -0.0001327765496)
(0 -0 -0.0001776936348)
(0 -0 -0.0002214026069)
(0 -0 -0.0002637531319)
(0 -0 -0.0003046571695)
(0 -0 -0.0003440735101)
(0 -0 -0.0003819953615)
(0 -0 -0.0004184407218)
(0 -0 -0.0004534450605)
(0 -0 -0.0004870558495)
(0 -0 -0.0005193285516)
(0 -0 -0.0005503237369)
(0 -0 -0.0005801050513)
(0 -0 -0.0006087378127)
(0 -0 -0.0006362880618)
(0 -0 -0.0006628219309)
(0 -0 -0.0006884052297)
(0 -0 -0.0007131031713)
(0 -0 -0.0007369801844)
(0 -0 -0.0007600997675)
(0 -0 -0.000782524364)
(0 -0 -0.0008043152365)
(0 -0 -0.0008255323269)
(0 -0 -0.0008462340926)
(0 -0 -0.0008664773147)
(0 -0 -0.0008863168675)
(0 -0 -0.0009058054802)
(0 -0 -0.0009249934586)
(0 -0 -0.000943928372)
(0 -0 -0.0009626547332)
(0 -0 0.0001035363954)
(0 -0 0.000104357624)
(0 -0 0.0001054563271)
(0 -0 0.0001073588625)
(0 -0 0.000110822639)
(0 -0 0.0001164701603)
(0 -0 0.0001245145702)
(0 -0 0.0001346914686)
(0 -0 0.0001463550504)
(0 -0 0.0001586375856)
(0 -0 0.0001706172798)
(0 -0 0.0001814597944)
(0 -0 0.0001905066239)
(0 -0 0.0001973075071)
(0 -0 0.000201613082)
(0 -0 0.0002033453304)
(0 -0 0.0002025585426)
(0 -0 0.0001993995668)
(0 -0 0.0001940726565)
(0 -0 0.0001868113641)
(0 -0 0.0001778577951)
(0 -0 0.0001674483843)
(0 -0 0.0001558049369)
(0 -0 0.0001431296578)
(0 -0 0.00012960302)
(0 -0 0.0001153835034)
(0 -0 0.0001006085038)
(0 -0 8.539590214e-05)
(0 -0 6.984592505e-05)
(0 -0 5.404306731e-05)
(0 -0 3.805793635e-05)
(0 -0 2.194894461e-05)
(0 -0 5.763816439e-06)
(0 -0 -1.04590977e-05)
(0 -0 -2.668968935e-05)
(0 -0 -4.290512269e-05)
(0 -0 -5.908900304e-05)
(0 -0 -7.52306604e-05)
(0 -0 -9.132450816e-05)
(0 -0 -0.0001073694784)
(0 -0 -0.0001233685121)
(0 -0 -0.0001393280898)
(0 -0 -0.0001552577933)
(0 -0 -0.0001711698843)
(0 -0 -0.0001870788864)
(0 -0 -0.0002030011582)
(0 -0 -0.0002189544796)
(0 -0 -0.000234957627)
(0 -0 -0.0002510299333)
(0 -0 -0.000267190834)
(0 -0 7.997664545e-05)
(0 -0 8.013554659e-05)
(0 -0 8.036631513e-05)
(0 -0 8.063617074e-05)
(0 -0 8.095669545e-05)
(0 -0 8.141429679e-05)
(0 -0 8.216253507e-05)
(0 -0 8.338425006e-05)
(0 -0 8.524073376e-05)
(0 -0 8.782890321e-05)
(0 -0 9.115981026e-05)
(0 -0 9.516030445e-05)
(0 -0 9.969104499e-05)
(0 -0 0.0001045716493)
(0 -0 0.000109605835)
(0 -0 0.0001146024297)
(0 -0 0.0001193902727)
(0 -0 0.0001238267698)
(0 -0 0.0001278010889)
(0 -0 0.0001312335118)
(0 -0 0.0001340724056)
(0 -0 0.000136289976)
(0 -0 0.0001378776458)
(0 -0 0.0001388416052)
(0 -0 0.0001391988626)
(0 -0 0.0001389739255)
(0 -0 0.0001381961208)
(0 -0 0.0001368974996)
(0 -0 0.0001351112416)
(0 -0 0.0001328704716)
(0 -0 0.0001302074034)
(0 -0 0.0001271527252)
(0 -0 0.0001237351848)
(0 -0 0.0001199813184)
(0 -0 0.0001159152742)
(0 -0 0.0001115587101)
(0 -0 0.000106930619)
(0 -0 0.0001020474154)
(0 -0 9.692325672e-05)
(0 -0 9.15697906e-05)
(0 -0 8.599612276e-05)
(0 -0 8.020888092e-05)
(0 -0 7.421228972e-05)
(0 -0 6.800823669e-05)
(0 -0 6.159641114e-05)
(0 -0 5.497469273e-05)
(0 -0 4.813913188e-05)
(0 -0 4.108401558e-05)
(0 -0 3.380207541e-05)
(0 -0 2.628468199e-05)
(0 -0 6.332017487e-05)
(0 -0 6.334671853e-05)
(0 -0 6.342448782e-05)
(0 -0 6.355523088e-05)
(0 -0 6.372897489e-05)
(0 -0 6.392987214e-05)
(0 -0 6.414350992e-05)
(0 -0 6.436748512e-05)
(0 -0 6.461767942e-05)
(0 -0 6.492637684e-05)
(0 -0 6.533482632e-05)
(0 -0 6.588445381e-05)
(0 -0 6.660925202e-05)
(0 -0 6.753053462e-05)
(0 -0 6.865459509e-05)
(0 -0 6.997311819e-05)
(0 -0 7.146555376e-05)
(0 -0 7.310246342e-05)
(0 -0 7.484903649e-05)
(0 -0 7.666826235e-05)
(0 -0 7.852348409e-05)
(0 -0 8.038023952e-05)
(0 -0 8.22074285e-05)
(0 -0 8.397792508e-05)
(0 -0 8.566877844e-05)
(0 -0 8.726113353e-05)
(0 -0 8.873997023e-05)
(0 -0 9.009373902e-05)
(0 -0 9.131393323e-05)
(0 -0 9.239465317e-05)
(0 -0 9.333225281e-05)
(0 -0 9.412439813e-05)
(0 -0 9.477036742e-05)
(0 -0 9.527085525e-05)
(0 -0 9.562745036e-05)
(0 -0 9.584232964e-05)
(0 -0 9.591814998e-05)
(0 -0 9.585773954e-05)
(0 -0 9.566362406e-05)
(0 -0 9.533814796e-05)
(0 -0 9.488341944e-05)
(0 -0 9.430119076e-05)
(0 -0 9.359274338e-05)
(0 -0 9.27587753e-05)
(0 -0 9.179921685e-05)
(0 -0 9.071298445e-05)
(0 -0 8.949803813e-05)
(0 -0 8.815131434e-05)
(0 -0 8.666878116e-05)
(0 -0 8.504468132e-05)
(0 -0 5.061172278e-05)
(0 -0 5.05573563e-05)
(0 -0 5.053004302e-05)
(0 -0 5.054107279e-05)
(0 -0 5.059230586e-05)
(0 -0 5.068167561e-05)
(0 -0 5.08035656e-05)
(0 -0 5.0950226e-05)
(0 -0 5.111390498e-05)
(0 -0 5.128863157e-05)
(0 -0 5.14714039e-05)
(0 -0 5.166284189e-05)
(0 -0 5.186714581e-05)
(0 -0 5.209126726e-05)
(0 -0 5.234356553e-05)
(0 -0 5.263239817e-05)
(0 -0 5.296496808e-05)
(0 -0 5.334655549e-05)
(0 -0 5.37801436e-05)
(0 -0 5.426637939e-05)
(0 -0 5.480377147e-05)
(0 -0 5.538901884e-05)
(0 -0 5.601739156e-05)
(0 -0 5.668311882e-05)
(0 -0 5.737976362e-05)
(0 -0 5.810055908e-05)
(0 -0 5.883868609e-05)
(0 -0 5.95875709e-05)
(0 -0 6.034068223e-05)
(0 -0 6.109217084e-05)
(0 -0 6.183673832e-05)
(0 -0 6.257017864e-05)
(0 -0 6.328869143e-05)
(0 -0 6.398873633e-05)
(0 -0 6.466724712e-05)
(0 -0 6.532163256e-05)
(0 -0 6.594987106e-05)
(0 -0 6.655036936e-05)
(0 -0 6.712159806e-05)
(0 -0 6.766234748e-05)
(0 -0 6.817177858e-05)
(0 -0 6.864937312e-05)
(0 -0 6.90948707e-05)
(0 -0 6.950824149e-05)
(0 -0 6.988960792e-05)
(0 -0 7.023877275e-05)
(0 -0 7.055529542e-05)
(0 -0 7.083858155e-05)
(0 -0 7.108767724e-05)
(0 -0 7.130192432e-05)
(0 -0 4.077191937e-05)
(0 -0 4.065055158e-05)
(0 -0 4.053847184e-05)
(0 -0 4.045109857e-05)
(0 -0 4.039264763e-05)
(0 -0 4.03642674e-05)
(0 -0 4.036536156e-05)
(0 -0 4.039429153e-05)
(0 -0 4.04488619e-05)
(0 -0 4.05265313e-05)
(0 -0 4.062455923e-05)
(0 -0 4.074026154e-05)
(0 -0 4.087132656e-05)
(0 -0 4.1016055e-05)
(0 -0 4.117345786e-05)
(0 -0 4.134323187e-05)
(0 -0 4.152565212e-05)
(0 -0 4.172141578e-05)
(0 -0 4.193147e-05)
(0 -0 4.215684403e-05)
(0 -0 4.239849229e-05)
(0 -0 4.265714846e-05)
(0 -0 4.293320768e-05)
(0 -0 4.322663666e-05)
(0 -0 4.353699561e-05)
(0 -0 4.386330598e-05)
(0 -0 4.420424656e-05)
(0 -0 4.455833689e-05)
(0 -0 4.492420349e-05)
(0 -0 4.530012558e-05)
(0 -0 4.568420296e-05)
(0 -0 4.607500243e-05)
(0 -0 4.647096703e-05)
(0 -0 4.687031463e-05)
(0 -0 4.72712896e-05)
(0 -0 4.767223424e-05)
(0 -0 4.807149084e-05)
(0 -0 4.846754449e-05)
(0 -0 4.885936007e-05)
(0 -0 4.924613521e-05)
(0 -0 4.962722277e-05)
(0 -0 5.000213724e-05)
(0 -0 5.037055958e-05)
(0 -0 5.073230688e-05)
(0 -0 5.108734732e-05)
(0 -0 5.143604495e-05)
(0 -0 5.177900655e-05)
(0 -0 5.211691371e-05)
(0 -0 5.245035956e-05)
(0 -0 5.278063192e-05)
(0 -0 3.293862271e-05)
(0 -0 3.276584881e-05)
(0 -0 3.259028708e-05)
(0 -0 3.24306848e-05)
(0 -0 3.229259716e-05)
(0 -0 3.217816684e-05)
(0 -0 3.208797369e-05)
(0 -0 3.202186611e-05)
(0 -0 3.19794323e-05)
(0 -0 3.196017944e-05)
(0 -0 3.196357322e-05)
(0 -0 3.198904081e-05)
(0 -0 3.203595609e-05)
(0 -0 3.210361285e-05)
(0 -0 3.219120856e-05)
(0 -0 3.229785284e-05)
(0 -0 3.242259824e-05)
(0 -0 3.256448634e-05)
(0 -0 3.272259934e-05)
(0 -0 3.289609976e-05)
(0 -0 3.308423627e-05)
(0 -0 3.328629389e-05)
(0 -0 3.35015825e-05)
(0 -0 3.372910431e-05)
(0 -0 3.396788506e-05)
(0 -0 3.421698545e-05)
(0 -0 3.447542417e-05)
(0 -0 3.474196726e-05)
(0 -0 3.501563546e-05)
(0 -0 3.529523041e-05)
(0 -0 3.557949631e-05)
(0 -0 3.586665299e-05)
(0 -0 3.615509847e-05)
(0 -0 3.644355562e-05)
(0 -0 3.673084958e-05)
(0 -0 3.701587357e-05)
(0 -0 3.729760001e-05)
(0 -0 3.757509254e-05)
(0 -0 3.784752736e-05)
(0 -0 3.81142141e-05)
(0 -0 3.837461401e-05)
(0 -0 3.862835597e-05)
(0 -0 3.887524873e-05)
(0 -0 3.911527956e-05)
(0 -0 3.934859064e-05)
(0 -0 3.957544616e-05)
(0 -0 3.979620118e-05)
(0 -0 4.001134434e-05)
(0 -0 4.022157826e-05)
(0 -0 4.042701341e-05)
(0 -0 2.656520828e-05)
(0 -0 2.634940067e-05)
(0 -0 2.612209805e-05)
(0 -0 2.590505463e-05)
(0 -0 2.570497703e-05)
(0 -0 2.552479312e-05)
(0 -0 2.536586521e-05)
(0 -0 2.522886732e-05)
(0 -0 2.51142129e-05)
(0 -0 2.502222956e-05)
(0 -0 2.495323178e-05)
(0 -0 2.490753938e-05)
(0 -0 2.488543557e-05)
(0 -0 2.488708613e-05)
(0 -0 2.491246733e-05)
(0 -0 2.496132702e-05)
(0 -0 2.503317663e-05)
(0 -0 2.512731757e-05)
(0 -0 2.524288796e-05)
(0 -0 2.53789308e-05)
(0 -0 2.553439648e-05)
(0 -0 2.570803561e-05)
(0 -0 2.589864785e-05)
(0 -0 2.610502399e-05)
(0 -0 2.632567409e-05)
(0 -0 2.655914298e-05)
(0 -0 2.680383314e-05)
(0 -0 2.705802611e-05)
(0 -0 2.731967383e-05)
(0 -0 2.758691471e-05)
(0 -0 2.785799851e-05)
(0 -0 2.813122479e-05)
(0 -0 2.840494001e-05)
(0 -0 2.86775476e-05)
(0 -0 2.89475138e-05)
(0 -0 2.921337695e-05)
(0 -0 2.947376363e-05)
(0 -0 2.972741009e-05)
(0 -0 2.997318745e-05)
(0 -0 3.021012784e-05)
(0 -0 3.043744257e-05)
(0 -0 3.065452741e-05)
(0 -0 3.086096383e-05)
(0 -0 3.105652496e-05)
(0 -0 3.124117233e-05)
(0 -0 3.141501924e-05)
(0 -0 3.15782751e-05)
(0 -0 3.173123477e-05)
(0 -0 3.187431591e-05)
(0 -0 3.200802083e-05)
(0 -0 2.129409719e-05)
(0 -0 2.103981404e-05)
(0 -0 2.076734721e-05)
(0 -0 2.050128542e-05)
(0 -0 2.024936745e-05)
(0 -0 2.001518914e-05)
(0 -0 1.980073394e-05)
(0 -0 1.960730406e-05)
(0 -0 1.943593234e-05)
(0 -0 1.928755121e-05)
(0 -0 1.916307216e-05)
(0 -0 1.906340217e-05)
(0 -0 1.898938533e-05)
(0 -0 1.894170258e-05)
(0 -0 1.892078599e-05)
(0 -0 1.892677362e-05)
(0 -0 1.895948996e-05)
(0 -0 1.901848912e-05)
(0 -0 1.910302744e-05)
(0 -0 1.92121441e-05)
(0 -0 1.934483792e-05)
(0 -0 1.950004194e-05)
(0 -0 1.967638513e-05)
(0 -0 1.987253422e-05)
(0 -0 2.008677167e-05)
(0 -0 2.031703839e-05)
(0 -0 2.056114508e-05)
(0 -0 2.081695361e-05)
(0 -0 2.108231163e-05)
(0 -0 2.135506005e-05)
(0 -0 2.163305698e-05)
(0 -0 2.191419365e-05)
(0 -0 2.219640976e-05)
(0 -0 2.247770784e-05)
(0 -0 2.275616425e-05)
(0 -0 2.302993941e-05)
(0 -0 2.329729091e-05)
(0 -0 2.355659219e-05)
(0 -0 2.380635908e-05)
(0 -0 2.404528421e-05)
(0 -0 2.427226925e-05)
(0 -0 2.448643718e-05)
(0 -0 2.468711922e-05)
(0 -0 2.487383693e-05)
(0 -0 2.504629944e-05)
(0 -0 2.520439833e-05)
(0 -0 2.534817089e-05)
(0 -0 2.54777537e-05)
(0 -0 2.559337527e-05)
(0 -0 2.569538095e-05)
(0 -0 1.68749106e-05)
(0 -0 1.658487284e-05)
(0 -0 1.627122692e-05)
(0 -0 1.596130188e-05)
(0 -0 1.566379337e-05)
(0 -0 1.538288395e-05)
(0 -0 1.512106592e-05)
(0 -0 1.488013218e-05)
(0 -0 1.466159652e-05)
(0 -0 1.446687191e-05)
(0 -0 1.429735719e-05)
(0 -0 1.415444485e-05)
(0 -0 1.403944125e-05)
(0 -0 1.395344416e-05)
(0 -0 1.389724279e-05)
(0 -0 1.387128283e-05)
(0 -0 1.387555571e-05)
(0 -0 1.390972355e-05)
(0 -0 1.39732548e-05)
(0 -0 1.406538463e-05)
(0 -0 1.418510409e-05)
(0 -0 1.433132356e-05)
(0 -0 1.450264173e-05)
(0 -0 1.469718061e-05)
(0 -0 1.491286373e-05)
(0 -0 1.514750903e-05)
(0 -0 1.53987889e-05)
(0 -0 1.566426652e-05)
(0 -0 1.594145655e-05)
(0 -0 1.622785758e-05)
(0 -0 1.652097538e-05)
(0 -0 1.681834616e-05)
(0 -0 1.711755454e-05)
(0 -0 1.741624563e-05)
(0 -0 1.771213465e-05)
(0 -0 1.800302004e-05)
(0 -0 1.828680438e-05)
(0 -0 1.856152228e-05)
(0 -0 1.882537075e-05)
(0 -0 1.907674105e-05)
(0 -0 1.931425145e-05)
(0 -0 1.953676973e-05)
(0 -0 1.97434077e-05)
(0 -0 1.993349011e-05)
(0 -0 2.010652832e-05)
(0 -0 2.026221496e-05)
(0 -0 2.040041521e-05)
(0 -0 2.052113796e-05)
(0 -0 2.062451477e-05)
(0 -0 2.071079964e-05)
(0 -0 1.312854402e-05)
(0 -0 1.280434814e-05)
(0 -0 1.24519379e-05)
(0 -0 1.210133551e-05)
(0 -0 1.176214901e-05)
(0 -0 1.143910038e-05)
(0 -0 1.113512295e-05)
(0 -0 1.085240801e-05)
(0 -0 1.059284921e-05)
(0 -0 1.035824907e-05)
(0 -0 1.01504195e-05)
(0 -0 9.971174942e-06)
(0 -0 9.822231183e-06)
(0 -0 9.705049575e-06)
(0 -0 9.620675779e-06)
(0 -0 9.569804902e-06)
(0 -0 9.55276039e-06)
(0 -0 9.569371774e-06)
(0 -0 9.619163998e-06)
(0 -0 9.701462423e-06)
(0 -0 9.815256373e-06)
(0 -0 9.959126615e-06)
(0 -0 1.013145125e-05)
(0 -0 1.033032664e-05)
(0 -0 1.055355421e-05)
(0 -0 1.079870149e-05)
(0 -0 1.106316021e-05)
(0 -0 1.134420452e-05)
(0 -0 1.163904062e-05)
(0 -0 1.194484008e-05)
(0 -0 1.225876788e-05)
(0 -0 1.257801011e-05)
(0 -0 1.289979776e-05)
(0 -0 1.322142339e-05)
(0 -0 1.354025209e-05)
(0 -0 1.385373456e-05)
(0 -0 1.41594313e-05)
(0 -0 1.445504926e-05)
(0 -0 1.473848165e-05)
(0 -0 1.50078405e-05)
(0 -0 1.5261482e-05)
(0 -0 1.549802741e-05)
(0 -0 1.571636836e-05)
(0 -0 1.591564358e-05)
(0 -0 1.609520332e-05)
(0 -0 1.625459118e-05)
(0 -0 1.639353482e-05)
(0 -0 1.651191865e-05)
(0 -0 1.66097663e-05)
(0 -0 1.668726363e-05)
(0 -0 9.924520453e-06)
(0 -0 9.567085071e-06)
(0 -0 9.177393028e-06)
(0 -0 8.788130744e-06)
(0 -0 8.40977582e-06)
(0 -0 8.047552743e-06)
(0 -0 7.704786911e-06)
(0 -0 7.383992198e-06)
(0 -0 7.087360447e-06)
(0 -0 6.817026696e-06)
(0 -0 6.575193668e-06)
(0 -0 6.364068811e-06)
(0 -0 6.185730985e-06)
(0 -0 6.042014069e-06)
(0 -0 5.93434604e-06)
(0 -0 5.863583355e-06)
(0 -0 5.830206553e-06)
(0 -0 5.834273108e-06)
(0 -0 5.875339587e-06)
(0 -0 5.95255324e-06)
(0 -0 6.064820806e-06)
(0 -0 6.210757267e-06)
(0 -0 6.388645807e-06)
(0 -0 6.596419063e-06)
(0 -0 6.831678751e-06)
(0 -0 7.091755991e-06)
(0 -0 7.373782906e-06)
(0 -0 7.674749936e-06)
(0 -0 7.991551258e-06)
(0 -0 8.32102436e-06)
(0 -0 8.659987856e-06)
(0 -0 9.005276763e-06)
(0 -0 9.35377044e-06)
(0 -0 9.702410661e-06)
(0 -0 1.004821373e-05)
(0 -0 1.038828562e-05)
(0 -0 1.07198493e-05)
(0 -0 1.104028732e-05)
(0 -0 1.134719045e-05)
(0 -0 1.163839582e-05)
(0 -0 1.191200845e-05)
(0 -0 1.216641579e-05)
(0 -0 1.240029714e-05)
(0 -0 1.261260784e-05)
(0 -0 1.280253741e-05)
(0 -0 1.296948318e-05)
(0 -0 1.311305565e-05)
(0 -0 1.323306253e-05)
(0 -0 1.332945758e-05)
(0 -0 1.340233564e-05)
(0 -0 7.166351713e-06)
(0 -0 6.776235172e-06)
(0 -0 6.350192769e-06)
(0 -0 5.923522958e-06)
(0 -0 5.507476631e-06)
(0 -0 5.107717989e-06)
(0 -0 4.72795564e-06)
(0 -0 4.371063592e-06)
(0 -0 4.039593198e-06)
(0 -0 3.736048251e-06)
(0 -0 3.463022054e-06)
(0 -0 3.223133248e-06)
(0 -0 3.018788678e-06)
(0 -0 2.852023398e-06)
(0 -0 2.724528202e-06)
(0 -0 2.637502525e-06)
(0 -0 2.591502385e-06)
(0 -0 2.586546499e-06)
(0 -0 2.622226849e-06)
(0 -0 2.697745518e-06)
(0 -0 2.811955032e-06)
(0 -0 2.963368481e-06)
(0 -0 3.150139955e-06)
(0 -0 3.37005448e-06)
(0 -0 3.620551168e-06)
(0 -0 3.898771199e-06)
(0 -0 4.201612847e-06)
(0 -0 4.525783055e-06)
(0 -0 4.867849029e-06)
(0 -0 5.22429346e-06)
(0 -0 5.591569836e-06)
(0 -0 5.966149155e-06)
(0 -0 6.344551479e-06)
(0 -0 6.723364048e-06)
(0 -0 7.099254484e-06)
(0 -0 7.468988192e-06)
(0 -0 7.829456566e-06)
(0 -0 8.17772032e-06)
(0 -0 8.511064754e-06)
(0 -0 8.82704884e-06)
(0 -0 9.123528584e-06)
(0 -0 9.398661461e-06)
(0 -0 9.650914709e-06)
(0 -0 9.879067535e-06)
(0 -0 1.008217217e-05)
(0 -0 1.025949462e-05)
(0 -0 1.041050613e-05)
(0 -0 1.053491444e-05)
(0 -0 1.063264411e-05)
(0 -0 1.070377926e-05)
(0 -0 4.782043497e-06)
(0 -0 4.359528857e-06)
(0 -0 3.897246034e-06)
(0 -0 3.433056594e-06)
(0 -0 2.978906243e-06)
(0 -0 2.541007389e-06)
(0 -0 2.123882788e-06)
(0 -0 1.731422021e-06)
(0 -0 1.367068676e-06)
(0 -0 1.033717176e-06)
(0 -0 7.33760095e-07)
(0 -0 4.694281478e-07)
(0 -0 2.430088887e-07)
(0 -0 5.673925308e-08)
(0 -0 -8.746364881e-08)
(0 -0 -1.881336954e-07)
(0 -0 -2.444133233e-07)
(0 -0 -2.56086476e-07)
(0 -0 -2.235025813e-07)
(0 -0 -1.474709813e-07)
(0 -0 -2.918612709e-08)
(0 -0 1.297959419e-07)
(0 -0 3.275464355e-07)
(0 -0 5.617507494e-07)
(0 -0 8.29714592e-07)
(0 -0 1.12839153e-06)
(0 -0 1.454427163e-06)
(0 -0 1.804217217e-06)
(0 -0 2.173978929e-06)
(0 -0 2.55982964e-06)
(0 -0 2.957858783e-06)
(0 -0 3.364179633e-06)
(0 -0 3.774957219e-06)
(0 -0 4.186421957e-06)
(0 -0 4.594884004e-06)
(0 -0 4.996757128e-06)
(0 -0 5.388592041e-06)
(0 -0 5.767119493e-06)
(0 -0 6.129307547e-06)
(0 -0 6.472424834e-06)
(0 -0 6.794078748e-06)
(0 -0 7.092210031e-06)
(0 -0 7.365075651e-06)
(0 -0 7.611257224e-06)
(0 -0 7.829661612e-06)
(0 -0 8.019464776e-06)
(0 -0 8.18004906e-06)
(0 -0 8.311009917e-06)
(0 -0 8.412188032e-06)
(0 -0 8.48365416e-06)
(0 -0 2.716260787e-06)
(0 -0 2.257762629e-06)
(0 -0 1.755515766e-06)
(0 -0 1.252965318e-06)
(0 -0 7.637197269e-07)
(0 -0 2.931994797e-07)
(0 -0 -1.554589289e-07)
(0 -0 -5.789366142e-07)
(0 -0 -9.73457739e-07)
(0 -0 -1.335450031e-06)
(0 -0 -1.66191558e-06)
(0 -0 -1.950264216e-06)
(0 -0 -2.198005231e-06)
(0 -0 -2.402705519e-06)
(0 -0 -2.562202219e-06)
(0 -0 -2.674843205e-06)
(0 -0 -2.739633592e-06)
(0 -0 -2.756256581e-06)
(0 -0 -2.724997546e-06)
(0 -0 -2.646636415e-06)
(0 -0 -2.52237469e-06)
(0 -0 -2.35381965e-06)
(0 -0 -2.143005005e-06)
(0 -0 -1.892409419e-06)
(0 -0 -1.604945936e-06)
(0 -0 -1.283919668e-06)
(0 -0 -9.329644679e-07)
(0 -0 -5.559692254e-07)
(0 -0 -1.570012091e-07)
(0 -0 2.597670971e-07)
(0 -0 6.901201028e-07)
(0 -0 1.129844158e-06)
(0 -0 1.574755125e-06)
(0 -0 2.020716138e-06)
(0 -0 2.463659215e-06)
(0 -0 2.899621384e-06)
(0 -0 3.324792911e-06)
(0 -0 3.735566227e-06)
(0 -0 4.128584999e-06)
(0 -0 4.500804613e-06)
(0 -0 4.849552907e-06)
(0 -0 5.172548397e-06)
(0 -0 5.467864904e-06)
(0 -0 5.733899832e-06)
(0 -0 5.969381e-06)
(0 -0 6.17335882e-06)
(0 -0 6.345151858e-06)
(0 -0 6.484309953e-06)
(0 -0 6.590623118e-06)
(0 -0 6.664120694e-06)
(0 -0 9.1343713e-07)
(0 -0 4.269041259e-07)
(0 -0 -1.060410749e-07)
(0 -0 -6.419162976e-07)
(0 -0 -1.165039427e-06)
(0 -0 -1.668387727e-06)
(0 -0 -2.148489758e-06)
(0 -0 -2.602336805e-06)
(0 -0 -3.0264751e-06)
(0 -0 -3.417209078e-06)
(0 -0 -3.770878308e-06)
(0 -0 -4.083989129e-06)
(0 -0 -4.353321175e-06)
(0 -0 -4.576065121e-06)
(0 -0 -4.749944274e-06)
(0 -0 -4.873295797e-06)
(0 -0 -4.94511683e-06)
(0 -0 -4.965061322e-06)
(0 -0 -4.933379723e-06)
(0 -0 -4.850833501e-06)
(0 -0 -4.718641521e-06)
(0 -0 -4.538483697e-06)
(0 -0 -4.312536496e-06)
(0 -0 -4.043491847e-06)
(0 -0 -3.73452897e-06)
(0 -0 -3.389243181e-06)
(0 -0 -3.0115565e-06)
(0 -0 -2.605632607e-06)
(0 -0 -2.17580636e-06)
(0 -0 -1.726526673e-06)
(0 -0 -1.262307558e-06)
(0 -0 -7.876847123e-07)
(0 -0 -3.071796893e-07)
(0 -0 1.747256199e-07)
(0 -0 6.536103499e-07)
(0 -0 1.125149317e-06)
(0 -0 1.585172039e-06)
(0 -0 2.029731107e-06)
(0 -0 2.455155186e-06)
(0 -0 2.858091228e-06)
(0 -0 3.235560356e-06)
(0 -0 3.585010637e-06)
(0 -0 3.904313286e-06)
(0 -0 4.191708797e-06)
(0 -0 4.445774186e-06)
(0 -0 4.665419222e-06)
(0 -0 4.84985759e-06)
(0 -0 4.998574885e-06)
(0 -0 5.111337465e-06)
(0 -0 5.188191265e-06)
(0 -0 -6.326124152e-07)
(0 -0 -1.148613417e-06)
(0 -0 -1.713550284e-06)
(0 -0 -2.283510651e-06)
(0 -0 -2.842895968e-06)
(0 -0 -3.383076783e-06)
(0 -0 -3.898498608e-06)
(0 -0 -4.385008336e-06)
(0 -0 -4.839021024e-06)
(0 -0 -5.257063474e-06)
(0 -0 -5.635572087e-06)
(0 -0 -5.970928453e-06)
(0 -0 -6.259665609e-06)
(0 -0 -6.498708118e-06)
(0 -0 -6.685546705e-06)
(0 -0 -6.818338867e-06)
(0 -0 -6.895957412e-06)
(0 -0 -6.917982047e-06)
(0 -0 -6.884629194e-06)
(0 -0 -6.796657845e-06)
(0 -0 -6.655314347e-06)
(0 -0 -6.462343361e-06)
(0 -0 -6.220033676e-06)
(0 -0 -5.931242115e-06)
(0 -0 -5.599361683e-06)
(0 -0 -5.228240699e-06)
(0 -0 -4.822083688e-06)
(0 -0 -4.385360633e-06)
(0 -0 -3.922733389e-06)
(0 -0 -3.438995282e-06)
(0 -0 -2.939017037e-06)
(0 -0 -2.427696201e-06)
(0 -0 -1.909912183e-06)
(0 -0 -1.390492252e-06)
(0 -0 -8.741898275e-07)
(0 -0 -3.656612199e-07)
(0 -0 1.305835638e-07)
(0 -0 6.102605622e-07)
(0 -0 1.069389769e-06)
(0 -0 1.504340224e-06)
(0 -0 1.911860951e-06)
(0 -0 2.289126826e-06)
(0 -0 2.633766289e-06)
(0 -0 2.943829546e-06)
(0 -0 3.217742575e-06)
(0 -0 3.454295067e-06)
(0 -0 3.652617932e-06)
(0 -0 3.812135977e-06)
(0 -0 3.932564629e-06)
(0 -0 4.01393838e-06)
(0 -0 -1.947471956e-06)
(0 -0 -2.500435322e-06)
(0 -0 -3.105603623e-06)
(0 -0 -3.713300561e-06)
(0 -0 -4.308016268e-06)
(0 -0 -4.881969242e-06)
(0 -0 -5.429786947e-06)
(0 -0 -5.947086333e-06)
(0 -0 -6.429915707e-06)
(0 -0 -6.874474426e-06)
(0 -0 -7.276962588e-06)
(0 -0 -7.633578409e-06)
(0 -0 -7.94066871e-06)
(0 -0 -8.194951402e-06)
(0 -0 -8.393708136e-06)
(0 -0 -8.534915029e-06)
(0 -0 -8.617312716e-06)
(0 -0 -8.640403011e-06)
(0 -0 -8.604371156e-06)
(0 -0 -8.509981319e-06)
(0 -0 -8.358515545e-06)
(0 -0 -8.151786062e-06)
(0 -0 -7.892185678e-06)
(0 -0 -7.582714017e-06)
(0 -0 -7.226944534e-06)
(0 -0 -6.828942044e-06)
(0 -0 -6.393163869e-06)
(0 -0 -5.924370392e-06)
(0 -0 -5.427549304e-06)
(0 -0 -4.907847318e-06)
(0 -0 -4.37050664e-06)
(0 -0 -3.820809189e-06)
(0 -0 -3.264029069e-06)
(0 -0 -2.705389172e-06)
(0 -0 -2.15002168e-06)
(0 -0 -1.602935364e-06)
(0 -0 -1.068977847e-06)
(0 -0 -5.52768515e-07)
(0 -0 -5.8606224e-08)
(0 -0 4.096012296e-07)
(0 -0 8.483619656e-07)
(0 -0 1.254617924e-06)
(0 -0 1.625773714e-06)
(0 -0 1.959686267e-06)
(0 -0 2.254612048e-06)
(0 -0 2.509187764e-06)
(0 -0 2.722441992e-06)
(0 -0 2.893769223e-06)
(0 -0 3.022896008e-06)
(0 -0 3.109879154e-06)
(0 -0 -3.075030594e-06)
(0 -0 -3.659712822e-06)
(0 -0 -4.299477579e-06)
(0 -0 -4.942393653e-06)
(0 -0 -5.571676309e-06)
(0 -0 -6.178941803e-06)
(0 -0 -6.758582519e-06)
(0 -0 -7.305998322e-06)
(0 -0 -7.81695445e-06)
(0 -0 -8.28735959e-06)
(0 -0 -8.713162671e-06)
(0 -0 -9.090345057e-06)
(0 -0 -9.415046907e-06)
(0 -0 -9.683778989e-06)
(0 -0 -9.893625962e-06)
(0 -0 -1.004239643e-05)
(0 -0 -1.012870812e-05)
(0 -0 -1.015198897e-05)
(0 -0 -1.011239419e-05)
(0 -0 -1.001069453e-05)
(0 -0 -9.848211358e-06)
(0 -0 -9.626829362e-06)
(0 -0 -9.349048856e-06)
(0 -0 -9.018012575e-06)
(0 -0 -8.637471326e-06)
(0 -0 -8.21170016e-06)
(0 -0 -7.745399319e-06)
(0 -0 -7.243604771e-06)
(0 -0 -6.711610878e-06)
(0 -0 -6.154896951e-06)
(0 -0 -5.579056722e-06)
(0 -0 -4.989739488e-06)
(0 -0 -4.392606575e-06)
(0 -0 -3.793290391e-06)
(0 -0 -3.197341208e-06)
(0 -0 -2.610167957e-06)
(0 -0 -2.036987437e-06)
(0 -0 -1.482768548e-06)
(0 -0 -9.521464164e-07)
(0 -0 -4.493305894e-07)
(0 -0 2.193533633e-08)
(0 -0 4.583697058e-07)
(0 -0 8.57163855e-07)
(0 -0 1.215991689e-06)
(0 -0 1.532965012e-06)
(0 -0 1.806589285e-06)
(0 -0 2.035778335e-06)
(0 -0 2.21986807e-06)
(0 -0 2.358598305e-06)
(0 -0 2.452095492e-06)
(0 -0 -4.015970697e-06)
(0 -0 -4.63256552e-06)
(0 -0 -5.306993488e-06)
(0 -0 -5.984809243e-06)
(0 -0 -6.64823974e-06)
(0 -0 -7.288397727e-06)
(0 -0 -7.899390479e-06)
(0 -0 -8.476369339e-06)
(0 -0 -9.014835046e-06)
(0 -0 -9.510436189e-06)
(0 -0 -9.958885719e-06)
(0 -0 -1.035594687e-05)
(0 -0 -1.069754897e-05)
(0 -0 -1.097999696e-05)
(0 -0 -1.120018473e-05)
(0 -0 -1.135576062e-05)
(0 -0 -1.144522381e-05)
(0 -0 -1.146792921e-05)
(0 -0 -1.142400131e-05)
(0 -0 -1.131421684e-05)
(0 -0 -1.113993652e-05)
(0 -0 -1.090311714e-05)
(0 -0 -1.060636476e-05)
(0 -0 -1.025296309e-05)
(0 -0 -9.846840496e-06)
(0 -0 -9.392485665e-06)
(0 -0 -8.894845019e-06)
(0 -0 -8.359227597e-06)
(0 -0 -7.791223996e-06)
(0 -0 -7.196632502e-06)
(0 -0 -6.581387018e-06)
(0 -0 -5.95149236e-06)
(0 -0 -5.312977151e-06)
(0 -0 -4.671859517e-06)
(0 -0 -4.03410086e-06)
(0 -0 -3.405532471e-06)
(0 -0 -2.791774537e-06)
(0 -0 -2.198168596e-06)
(0 -0 -1.62970387e-06)
(0 -0 -1.090920873e-06)
(0 -0 -5.858430312e-07)
(0 -0 -1.179822504e-07)
(0 -0 3.096353183e-07)
(0 -0 6.944750471e-07)
(0 -0 1.034486482e-06)
(0 -0 1.328069526e-06)
(0 -0 1.574073688e-06)
(0 -0 1.771813896e-06)
(0 -0 1.921053696e-06)
(0 -0 2.021978329e-06)
(0 -0 -4.782996144e-06)
(0 -0 -5.431212707e-06)
(0 -0 -6.139996621e-06)
(0 -0 -6.85228272e-06)
(0 -0 -7.549363786e-06)
(0 -0 -8.221887163e-06)
(0 -0 -8.863667782e-06)
(0 -0 -9.469600224e-06)
(0 -0 -1.003492845e-05)
(0 -0 -1.055505503e-05)
(0 -0 -1.102546586e-05)
(0 -0 -1.144171101e-05)
(0 -0 -1.179951204e-05)
(0 -0 -1.20949726e-05)
(0 -0 -1.23248014e-05)
(0 -0 -1.248649052e-05)
(0 -0 -1.257842239e-05)
(0 -0 -1.259987893e-05)
(0 -0 -1.255095366e-05)
(0 -0 -1.243242896e-05)
(0 -0 -1.224570347e-05)
(0 -0 -1.199280259e-05)
(0 -0 -1.167643313e-05)
(0 -0 -1.130001472e-05)
(0 -0 -1.086764973e-05)
(0 -0 -1.038403907e-05)
(0 -0 -9.854374856e-06)
(0 -0 -9.284237073e-06)
(0 -0 -8.679506337e-06)
(0 -0 -8.046291165e-06)
(0 -0 -7.390860276e-06)
(0 -0 -6.719574224e-06)
(0 -0 -6.038825685e-06)
(0 -0 -5.355000982e-06)
(0 -0 -4.674448743e-06)
(0 -0 -4.00341648e-06)
(0 -0 -3.347945462e-06)
(0 -0 -2.713767579e-06)
(0 -0 -2.106230755e-06)
(0 -0 -1.530220769e-06)
(0 -0 -9.900789817e-07)
(0 -0 -4.895817842e-07)
(0 -0 -3.198311695e-08)
(0 -0 3.799648015e-07)
(0 -0 7.440247798e-07)
(0 -0 1.058465109e-06)
(0 -0 1.32206709e-06)
(0 -0 1.534166509e-06)
(0 -0 1.694634352e-06)
(0 -0 1.803794019e-06)
(0 -0 -5.385987603e-06)
(0 -0 -6.065391474e-06)
(0 -0 -6.808019223e-06)
(0 -0 -7.554199948e-06)
(0 -0 -8.284316361e-06)
(0 -0 -8.988564263e-06)
(0 -0 -9.660465739e-06)
(0 -0 -1.029466012e-05)
(0 -0 -1.088614162e-05)
(0 -0 -1.143007603e-05)
(0 -0 -1.192172932e-05)
(0 -0 -1.235644395e-05)
(0 -0 -1.272973927e-05)
(0 -0 -1.303752338e-05)
(0 -0 -1.327632484e-05)
(0 -0 -1.344348261e-05)
(0 -0 -1.353726449e-05)
(0 -0 -1.35568811e-05)
(0 -0 -1.35023961e-05)
(0 -0 -1.337459695e-05)
(0 -0 -1.317491672e-05)
(0 -0 -1.290544406e-05)
(0 -0 -1.256898124e-05)
(0 -0 -1.216907929e-05)
(0 -0 -1.171000868e-05)
(0 -0 -1.119667316e-05)
(0 -0 -1.063449969e-05)
(0 -0 -1.002933169e-05)
(0 -0 -9.387336252e-06)
(0 -0 -8.714926937e-06)
(0 -0 -8.018698017e-06)
(0 -0 -7.305360523e-06)
(0 -0 -6.581676736e-06)
(0 -0 -5.854406806e-06)
(0 -0 -5.130275475e-06)
(0 -0 -4.415926503e-06)
(0 -0 -3.717820035e-06)
(0 -0 -3.042093914e-06)
(0 -0 -2.394459592e-06)
(0 -0 -1.78014087e-06)
(0 -0 -1.20381042e-06)
(0 -0 -6.695484686e-07)
(0 -0 -1.808708829e-07)
(0 -0 2.592334828e-07)
(0 -0 6.483174981e-07)
(0 -0 9.844578823e-07)
(0 -0 1.266326331e-06)
(0 -0 1.493198971e-06)
(0 -0 1.664983396e-06)
(0 -0 1.782406669e-06)
(0 -0 -5.8332001e-06)
(0 -0 -6.543205455e-06)
(0 -0 -7.318990707e-06)
(0 -0 -8.098331207e-06)
(0 -0 -8.860723079e-06)
(0 -0 -9.595921956e-06)