# Time	Cd	Cl	Cm
9.140767824	238.1987332	-0.01932326975	-1179.083729
18.28153565	10.21186579	-0.007633640906	-50.54873567
27.42230347	5.873273146	0.008891202582	-29.07270207
36.5630713	4.703422024	0.0001655399685	-23.28193902
45.70383912	4.180801607	0.0001361179715	-20.69496795
54.82777312	3.871845329	0.000220116076	-19.16563438
63.95170712	3.686335058	2.312186329e-05	-18.24735854
73.07564112	3.568657625	2.179604144e-05	-17.66485525
82.19957511	3.485244606	1.923395336e-05	-17.2519608
91.32350911	3.420928902	1.435150309e-05	-16.93359806
100.4474431	3.367917767	8.418612047e-06	-16.67119295
109.5713771	3.321875396	1.508338523e-05	-16.44328321
118.6953111	3.279119182	2.148529491e-06	-16.23163995
127.8192451	3.240267132	1.59964382e-05	-16.0393223
136.9431791	3.206474019	1.561018499e-06	-15.87204639
146.0671131	3.179495023	9.007490239e-06	-15.73850037
155.1910471	3.128856121	-3.67970894e-06	-15.4878378
164.3149811	3.074410877	-3.0646117e-06	-15.21833384
173.4217325	3.001661985	-6.578349427e-07	-14.85822683
182.528484	2.994048765	-2.679032582e-06	-14.82054138
191.6352354	2.946122341	4.555994546e-07	-14.58330559
200.7419869	2.931375464	1.129869401e-06	-14.51030855
209.8487383	2.911962079	1.720203823e-06	-14.41421229
218.9554898	2.885413531	2.396364358e-07	-14.28279698
228.0622412	2.917098293	7.073384964e-06	-14.43963655
237.1689927	2.871802793	-5.030347752e-06	-14.21542383
246.2757441	2.840380344	-5.183543713e-06	-14.0598827
255.3824956	2.814987767	1.64574705e-06	-13.93418945
264.489247	2.804097708	-4.295755006e-06	-13.88028365
273.5959985	2.779601614	7.199759909e-08	-13.75902799
282.7027499	2.756792543	-6.341544885e-06	-13.64612309
291.8095014	2.735742529	6.715032474e-07	-13.54192552
300.8986722	2.714729732	-4.947286889e-06	-13.43791217
309.9878431	2.689751901	1.572279232e-06	-13.31427191
319.0770139	2.680354933	-7.619174174e-06	-13.26775692
328.1661848	2.662976557	9.101874088e-08	-13.18173396
337.2553556	2.646117352	-3.768811082e-06	-13.09828089
346.3445264	2.629764564	-6.067974294e-06	-13.01733459
355.4336973	2.613976319	-6.882945524e-06	-12.93918278
364.5228681	2.598908012	-6.512394147e-06	-12.86459466
373.612039	2.584958699	-5.231056486e-06	-12.79554556
382.7012098	2.573759733	-4.206349482e-06	-12.74011068
391.7903807	2.557698284	-4.634687154e-06	-12.66060651
400.8795515	2.533366329	-7.340333327e-07	-12.54016333
409.9687224	2.52399477	7.240962199e-07	-12.49377411
419.0578932	2.501491423	-7.289541237e-06	-12.38238254
428.1470641	2.47579555	-5.193965223e-06	-12.25518797
437.2182008	2.460155752	-6.198690747e-06	-12.17777097
446.2893376	2.44485486	-3.602068488e-06	-12.10203156
455.3604744	2.429520552	-3.15292579e-06	-12.02612673
464.4316112	2.414009623	-3.450254623e-06	-11.94934764
473.502748	2.398097982	-3.890351123e-06	-11.87058501
482.5738847	2.381355318	-3.833595043e-06	-11.78770883
491.6450215	2.365635269	-6.761453473e-06	-11.70989458
500.7161583	2.362191553	-4.218834347e-06	-11.69284819
509.7872951	2.351303968	-5.186758161e-06	-11.63895464
518.8584318	2.343343188	-5.872136411e-07	-11.59954878
527.9295686	2.324027605	-5.395997915e-06	-11.50393665
537.0007054	2.310248895	-7.373172117e-06	-11.43573203
546.0718422	2.294102809	-8.42655886e-06	-11.35580891
555.142979	2.272348815	-7.082093875e-06	-11.24812663
564.2141157	2.253851301	-4.90856204e-06	-11.15656394
573.2852525	2.238735762	-3.503631926e-06	-11.08174202
582.3563893	2.224208321	-3.561597979e-06	-11.00983119
591.4089377	2.209833347	-4.492025571e-06	-10.93867507
600.4614861	2.195745571	-5.208694424e-06	-10.86894057
609.5140344	2.181929232	-5.678624163e-06	-10.8005497
618.5665828	2.168373126	-5.845024181e-06	-10.73344697
627.6191312	2.155062611	-5.468226669e-06	-10.66755993
636.6716796	2.141976805	-5.404060465e-06	-10.60278519
645.724228	2.128751255	-2.985137916e-06	-10.53731871
654.7767764	2.117419741	-1.346794032e-05	-10.48122772
663.8293247	2.107982555	-3.706961717e-06	-10.43451365
672.8818731	2.094476334	-3.610224402e-06	-10.36765785
681.9344215	2.080164554	-4.825442613e-06	-10.29681454
690.9869699	2.067659647	-4.149052681e-06	-10.23491525
700.0395183	2.055499077	-6.413565396e-06	-10.17472043
709.0920666	2.050932	-1.829691495e-06	-10.1521134
718.144615	2.044475221	-1.33527526e-05	-10.12015234
727.1971634	2.03548788	-5.966810615e-06	-10.07566501
736.2497118	2.025401509	-4.595170268e-06	-10.02573747
745.3022602	2.015748712	-4.66022725e-06	-9.977956125
754.3548086	2.00880538	-5.783157441e-06	-9.94358663
763.4073569	2.002559978	-5.630561298e-06	-9.912671889
772.4406035	1.98977048	-4.771023096e-06	-9.849363878
781.4738501	1.977328873	-7.035626474e-06	-9.787777921
790.5070967	1.968125691	-7.045514089e-06	-9.742222171
799.5403432	1.959461928	-5.087665271e-06	-9.699336543
808.5735898	1.951113376	-5.197745695e-06	-9.65801121
817.6068364	1.943257858	-5.319117116e-06	-9.619126397
826.640083	1.937142946	-5.587190664e-06	-9.588857581
835.6733295	1.927116556	-7.855670107e-06	-9.53922695
844.7065761	1.919575215	-2.535771066e-06	-9.501897313
853.7398227	1.912402432	-2.778488827e-06	-9.466392038
862.7730693	1.905343123	-5.666910235e-06	-9.431448458
871.8063158	1.898489772	-4.929401009e-06	-9.397524369
880.8395624	1.891848558	-4.961554544e-06	-9.364650361
889.872809	1.885407777	-6.167478938e-06	-9.332768498
898.9060555	1.879163378	-7.3347354e-06	-9.301858722
907.9393021	1.873109629	-7.5888575e-06	-9.271892663
916.9725487	1.867240373	-6.435739517e-06	-9.242839848
926.0057953	1.861550205	-5.592579434e-06	-9.214673514
935.0390418	1.856028274	-5.437875634e-06	-9.187339957
944.0722884	1.850665735	-4.431400424e-06	-9.160795387
953.105535	1.845454876	-6.079280032e-06	-9.135001634
962.1387816	1.840443937	-1.10445957e-06	-9.110197489
971.1518646	1.835488734	-7.654650637e-06	-9.085669234
980.1649477	1.831437104	-6.439103867e-06	-9.065613664
989.1780308	1.827004047	-3.163782076e-06	-9.043670034
998.1911139	1.823241819	-1.925746107e-06	-9.025047005
1007.204197	1.819202445	-7.179632924e-06	-9.0050521
1016.21728	1.814692944	-7.359654559e-06	-8.982730072
1025.230363	1.810416383	-6.087982507e-06	-8.961561094
1034.243446	1.806460729	-4.746614003e-06	-8.941980608
1043.256529	1.802635025	-4.024559031e-06	-8.923043373
1052.269612	1.799013155	-8.454917664e-07	-8.905115116
1061.282695	1.795871541	-7.019892664e-06	-8.889564126
1070.295778	1.792950571	-6.601164296e-06	-8.875105325
1079.308862	1.791639263	-7.184560987e-06	-8.868614352
1088.321945	1.789968492	-5.275555297e-06	-8.860344037
1097.335028	1.790345548	-3.552444027e-06	-8.862210463
1106.348111	1.785544048	-3.359005306e-06	-8.838443036
1115.361194	1.780314159	-6.95370632e-06	-8.812555085
1124.374277	1.778205551	-7.113921574e-06	-8.802117477
1133.38736	1.776731802	-3.613419368e-06	-8.794822418
1142.400443	1.773884925	-4.39256151e-06	-8.78073038
1151.413526	1.769187068	-4.008470493e-06	-8.757475985
1160.426609	1.767285742	-5.065592108e-06	-8.748064422
1169.439692	1.765535299	-4.080436979e-06	-8.73939973
1178.452775	1.763900499	-4.215583126e-06	-8.731307472
1187.465858	1.762178466	-4.037710371e-06	-8.722783405
1196.478942	1.760228574	-5.104977822e-06	-8.713131439
1205.470717	1.757595055	-4.660118955e-06	-8.700095525
1214.462493	1.753772754	-1.870953898e-06	-8.681175134
1223.454268	1.753049875	-5.345751391e-06	-8.677596881
1232.446044	1.752345132	-3.49979521e-06	-8.674108402
1241.437819	1.75280449	-4.513522307e-06	-8.676382226
1250.429595	1.751882466	-4.927121948e-06	-8.671818207
1259.42137	1.753331692	-7.14754881e-06	-8.678991874
1268.413146	1.753576366	-3.937374804e-06	-8.680203014
1277.404922	1.749412262	-2.947881015e-06	-8.659590695
1286.396697	1.747135436	-5.777399493e-06	-8.648320407
1295.388473	1.746372524	-4.132453094e-06	-8.644543996
1304.380248	1.745551972	-3.643157334e-06	-8.640482262
1313.372024	1.744737315	-3.6889205e-06	-8.636449709
1322.363799	1.743941249	-4.517487036e-06	-8.632509181
1331.355575	1.743185419	-4.430686118e-06	-8.628767825
1340.34735	1.742565459	-3.262375791e-06	-8.625699023
1349.339126	1.741921408	-4.356834279e-06	-8.62251097
1358.330901	1.741355971	-3.833168533e-06	-8.619712054
1367.322677	1.740838996	-3.857012435e-06	-8.617153031
1376.314453	1.740391357	-3.718061085e-06	-8.61493722
1385.306228	1.740030784	-3.725079475e-06	-8.61315238
1394.298004	1.73981079	-3.661491786e-06	-8.61206341
1403.289779	1.739936992	-3.487530548e-06	-8.61268811
1412.281555	1.739052142	-4.182915718e-06	-8.608308103
1421.27333	1.737266133	-4.738241895e-06	-8.599467357
1430.265106	1.736370952	-3.829890178e-06	-8.595036213
1439.256881	1.736093378	-3.706207237e-06	-8.593662219
1448.248657	1.735711314	-3.715630588e-06	-8.591771003
1457.240433	1.735104886	-3.316321459e-06	-8.588769186
1466.232208	1.734173857	-5.435826511e-06	-8.584160594
1475.223984	1.736131238	-3.416331097e-06	-8.59384963
1484.192879	1.737006699	-4.120247258e-06	-8.59818316
1493.161775	1.737590495	-3.61970066e-06	-8.601072951
1502.130671	1.737946994	-3.356045892e-06	-8.602837621
1511.099567	1.738102879	-3.252998093e-06	-8.603609253
1520.068462	1.738171864	-3.115226654e-06	-8.603950725
1529.037358	1.738305414	-3.05598894e-06	-8.604611802
1538.006254	1.738479438	-4.669586079e-06	-8.60547322
1546.975149	1.737765886	-3.429600993e-06	-8.601941135
1555.944045	1.737741634	-3.743738181e-06	-8.601821089
1564.912941	1.737881449	-3.176764841e-06	-8.602513171
1573.881837	1.737903092	-3.221542419e-06	-8.602620306
1582.850732	1.738828281	-2.801418758e-06	-8.607199993
1591.819628	1.739721736	-3.107974653e-06	-8.611622595
1600.788524	1.740221019	-3.313121361e-06	-8.614094042
1609.757419	1.740522446	-3.383822915e-06	-8.615586107
1618.726315	1.740872379	-3.179850744e-06	-8.617318278
1627.695211	1.741267951	-2.886683537e-06	-8.619276358
1636.664107	1.74170842	-3.153339917e-06	-8.621456677
1645.633002	1.742180465	-2.879300938e-06	-8.623793303
1654.601898	1.742696106	-2.898008207e-06	-8.626345726
1663.570794	1.742518248	-4.312418731e-06	-8.625465327
1672.539689	1.743163607	-2.228329118e-06	-8.628659856
1681.508585	1.743738875	-4.106572937e-06	-8.631507429
1690.477481	1.744201777	-2.853346066e-06	-8.633798794
1699.446377	1.744700458	-2.457949832e-06	-8.636267268
1708.415272	1.744871831	-3.210847048e-06	-8.637115566
1717.384168	1.744617918	-3.249259581e-06	-8.635858695
1726.353064	1.748015278	-4.500962489e-06	-8.652675628
1735.321959	1.749621139	-2.551620228e-06	-8.66062464
1744.290855	1.750945233	-3.267197774e-06	-8.667178902
1753.259751	1.750727306	-2.664942624e-06	-8.666100164
1762.228647	1.750495277	-2.798936655e-06	-8.664951623
1771.197542	1.751448992	-2.632473566e-06	-8.66967251
1780.166438	1.752362665	-2.81133674e-06	-8.674195193
1789.135334	1.753309358	-2.313039937e-06	-8.678881323
1798.104229	1.75428862	-2.495835801e-06	-8.683728669
1807.073125	1.755413762	-2.367197301e-06	-8.689298124
1816.016898	1.756524928	-2.503544211e-06	-8.694798391
1824.960671	1.758052154	-9.842633952e-07	-8.70235816
1833.904443	1.757832059	-3.63536695e-06	-8.701268692
1842.848216	1.758147979	-4.583671846e-06	-8.702832494
1851.791989	1.757976559	-1.965820842e-06	-8.701983966
1860.735762	1.759263644	-7.610163229e-07	-8.708355036
1869.679534	1.760298042	-4.19919393e-06	-8.713475305
1878.623307	1.761240148	-1.59199147e-06	-8.718138732
1887.56708	1.761943821	-2.417928489e-06	-8.721621912
1896.510853	1.762892194	-1.823505774e-06	-8.726316358
1905.454626	1.765273639	-2.069660334e-06	-8.738104512
1914.398398	1.766300402	-1.911731419e-06	-8.743186989
1923.342171	1.767316389	-2.124405704e-06	-8.748216125
1932.285944	1.768345429	-1.787531323e-06	-8.753309874
1941.229717	1.769393639	-1.512874172e-06	-8.758498514
1950.173489	1.770453915	-7.549730302e-07	-8.763746881
1959.117262	1.771439513	-4.276095938e-06	-8.76862559
1968.061035	1.772277036	-1.51801915e-06	-8.772771331
1977.004808	1.772104592	-2.55419558e-06	-8.771917731
1985.94858	1.775047615	-2.619935389e-06	-8.786485695
1994.892353	1.776306317	-9.980579601e-07	-8.792716269
2003.836126	1.777446972	-1.322054198e-06	-8.798362509
2012.779899	1.778573184	-2.052603893e-06	-8.803937262
2021.723671	1.779714459	-7.17286767e-07	-8.809586571
2030.667444	1.780879765	-3.089317724e-06	-8.815354837
2039.611217	1.782085597	-9.625586832e-07	-8.821323705
2048.55499	1.783390983	1.124777204e-07	-8.827785367
2057.498762	1.785153782	-1.876923962e-06	-8.836511222
2066.442535	1.785425104	-3.094048031e-06	-8.837854265
2075.386308	1.785844574	-1.390169984e-06	-8.839930643
2084.330081	1.786998038	-1.164287608e-06	-8.845640286
2093.273853	1.788152816	-1.521350617e-06	-8.85135644
2102.217626	1.78928834	-1.203164303e-06	-8.856977281
2111.161399	1.79045892	-1.317310718e-06	-8.862771655
2120.105172	1.791741827	-2.270291176e-07	-8.869122045
2129.048944	1.792961267	-1.47209459e-06	-8.875158271
2137.992717	1.794085998	-1.286843772e-06	-8.880725688
2146.93649	1.795209884	-1.195861066e-06	-8.886288925
2155.880263	1.796325552	-1.09170048e-06	-8.891811481
2164.824036	1.797430823	-1.053134003e-06	-8.897282574
2173.767808	1.79851382	-7.49777854e-07	-8.902643409
2182.711581	1.799576553	-1.028779254e-06	-8.907903936
2191.655354	1.800593951	-2.740241897e-07	-8.912940055
2200.599127	1.801547851	-1.335414466e-06	-8.917661864
2209.542899	1.802408399	-1.478466573e-07	-8.921921574
2218.486672	1.803104847	9.673809254e-08	-8.925368993
2227.430445	1.803521876	6.485600253e-07	-8.927433288
2236.345459	1.803344972	-3.536130041e-06	-8.926557609
2245.260474	1.808234633	-2.599294879e-06	-8.950761433
2254.175489	1.810597696	-1.815418943e-06	-8.962458595
2263.090503	1.816021049	-4.508667558e-06	-8.989304194
2272.005518	1.817509577	-1.665593788e-06	-8.996672405
2280.920533	1.818410217	-1.423401729e-06	-9.001130574
2289.835547	1.819532987	4.414454616e-06	-9.006688284
2298.750562	1.820698461	-2.049895357e-06	-9.01245738
2307.665577	1.821811806	5.421599137e-07	-9.017968442
2316.580591	1.822955991	-1.263855297e-06	-9.023632156
2325.495606	1.824135833	-8.373026397e-07	-9.029472376
2334.410621	1.825339546	-4.985069721e-07	-9.035430751
2343.325635	1.826577232	-4.445353087e-07	-9.041557301
2352.24065	1.827821998	-3.773734558e-07	-9.047718891
2361.155665	1.829562713	-1.399120492e-06	-9.056335431
2370.070679	1.830068691	2.243734516e-06	-9.05884002
2378.985694	1.831177145	3.411842275e-07	-9.064326865
2387.900708	1.832647462	1.030260703e-06	-9.071604936
2396.815723	1.833859369	3.160319218e-08	-9.077603877
2405.730738	1.835439047	-2.876169855e-07	-9.085423283
2414.645752	1.835928713	1.007971141e-07	-9.087847128
2423.560767	1.837138146	2.043493563e-07	-9.09383382
2432.475782	1.838210393	1.8230742e-07	-9.099141445
2441.390796	1.839089626	3.114999537e-07	-9.103493648
2450.305811	1.840050607	9.049311737e-09	-9.108250505
2459.220826	1.842514114	-4.555247045e-07	-9.120444862
2468.13584	1.844643251	5.431054819e-07	-9.130984094
2477.050855	1.845757607	5.646093927e-07	-9.136500156
2485.96587	1.846835419	5.474773657e-07	-9.141835323
2494.880884	1.84788053	3.671321447e-07	-9.147008624
2503.795899	1.849014285	1.307339677e-06	-9.15262071
2512.710914	1.85018294	5.910256398e-07	-9.158405552
2521.625928	1.851292316	7.184748516e-07	-9.163896966
2530.540943	1.852388199	7.613114785e-07	-9.169321586
2539.455957	1.853418625	8.582372585e-07	-9.174422194
2548.370972	1.854214245	8.267565054e-07	-9.178360513
2557.285987	1.856944352	1.072531937e-06	-9.191874543
2566.201001	1.859306937	1.358255459e-06	-9.203569341
2575.116016	1.861554952	-8.534040641e-07	-9.214697014
2584.031031	1.862522315	3.542219854e-07	-9.219485461
2592.946045	1.864000309	-3.617036586e-07	-9.226801531
2601.86106	1.863746384	8.734315159e-07	-9.225544603
2610.776075	1.863497524	2.013761006e-06	-9.224312743
2619.691089	1.864757713	2.141788113e-06	-9.230550681
2628.606104	1.865855307	9.011504095e-07	-9.235983769
2637.521119	1.866912544	1.179652756e-06	-9.241217091
2646.436133	1.867989909	1.314428139e-06	-9.246550047
2655.351148	1.86917361	1.634548371e-06	-9.252409369
2664.266163	1.870324396	1.129386625e-06	-9.258105758
2673.181177	1.870652716	1.652289971e-06	-9.259730946
2682.096192	1.871607889	1.40842297e-06	-9.264459052
2691.011206	1.872566976	1.527553906e-06	-9.269206533
2699.926221	1.873512093	1.575655645e-06	-9.273884862
2708.841236	1.87444114	1.620498856e-06	-9.278483643
2717.75625	1.875350996	1.651106263e-06	-9.282987429
2726.671265	1.876232893	1.690713382e-06	-9.28735282
2735.58628	1.877116765	1.974126875e-06	-9.291727987
2744.501294	1.877979474	1.963829593e-06	-9.295998395
2753.416309	1.878714633	8.541325841e-07	-9.299637434
2762.331324	1.878682481	2.524840022e-06	-9.299478283
2771.246338	1.880611582	2.317266312e-06	-9.309027333
2780.125835	1.880822511	2.655697804e-06	-9.310071429
2789.005332	1.881850052	1.570471679e-06	-9.315157758
2797.884828	1.884054939	1.970826785e-06	-9.326071948
2806.764325	1.8852384	3.255006911e-06	-9.33193008
2815.643822	1.88801746	2.722255683e-06	-9.345686428
2824.523318	1.888941468	2.517124445e-06	-9.350260267
2833.402815	1.889613269	2.501734189e-06	-9.353585682
2842.282312	1.890299852	2.545116159e-06	-9.35698427
2851.161808	1.890994819	2.610633422e-06	-9.360424354
2860.041305	1.891774469	2.657038826e-06	-9.364283621
2868.920802	1.892558033	2.843261202e-06	-9.368162263
2877.800298	1.893573994	2.382773281e-06	-9.373191272
2886.679795	1.893800095	2.637486993e-06	-9.374310472
2895.559292	1.894472927	2.809146443e-06	-9.37764099
2904.438788	1.895273786	2.890144838e-06	-9.381605239
2913.318285	1.895928134	2.773514294e-06	-9.384844266
2922.197781	1.896414984	2.62838349e-06	-9.387254173
2931.077278	1.897474194	3.668454367e-06	-9.392497261
2939.956775	1.898868744	3.259872776e-06	-9.399400285
2948.836271	1.90025691	3.984089511e-06	-9.406271706
2957.715768	1.901568049	3.098537902e-06	-9.412761844
2966.595265	1.902086613	2.957755345e-06	-9.415328734
2975.474761	1.902587645	3.312646582e-06	-9.417808842
2984.354258	1.903531985	3.951614259e-06	-9.422483325
2993.233755	1.904295334	2.949263622e-06	-9.426261905
3002.113251	1.903912213	3.866619009e-07	-9.424365456
3010.992748	1.904139843	3.619491572e-06	-9.425492225
3019.872245	1.904800589	3.49518872e-06	-9.428762914
3028.751741	1.905457239	3.470378498e-06	-9.432013333
3037.631238	1.906099549	3.480132441e-06	-9.435192768
3046.510735	1.906729651	3.489278166e-06	-9.438311771
3055.390231	1.907364514	3.519464129e-06	-9.441454345
3064.269728	1.908030779	3.352429017e-06	-9.444752355
3073.149225	1.908366646	3.363216336e-06	-9.446414896
3082.028721	1.909008052	6.484916369e-06	-9.449589855
3090.908218	1.909564696	4.568135219e-06	-9.452345243
3099.787715	1.910082024	4.089824902e-06	-9.454906019
3108.667211	1.910727588	4.366812878e-06	-9.45810156
3117.546708	1.911259518	4.16445557e-06	-9.460734613
3126.426205	1.911712081	8.367656852e-06	-9.462974801
3135.305701	1.912381293	4.044540422e-06	-9.466287402
3144.185198	1.913652969	3.870833553e-06	-9.472582195
3153.064695	1.914964736	4.570778638e-06	-9.479075444
3161.944191	1.916308201	4.488150029e-06	-9.485725595
3170.823688	1.91629814	3.53873888e-06	-9.485675794
3179.703185	1.916217796	4.01959782e-06	-9.485278089
3188.582681	1.916521781	4.071685599e-06	-9.486782815
3197.462178	1.916853915	3.631207572e-06	-9.488426878
3206.341675	1.917399303	6.773492383e-06	-9.49112655
3215.221171	1.91733932	4.839821738e-06	-9.490829632
3224.100668	1.918265434	5.892352135e-06	-9.495413896
3232.980165	1.918566825	4.772583043e-06	-9.496905782
3241.859661	1.918971528	4.689534202e-06	-9.498909066
3250.739158	1.919359895	4.767880024e-06	-9.500831478
3259.618655	1.919779181	4.860079676e-06	-9.502906945
3268.498151	1.920461023	4.921198112e-06	-9.506282063
3277.377648	1.920288224	5.564374703e-06	-9.50542671
3286.257145	1.920646009	5.286446931e-06	-9.507197746
3295.136641	1.921039826	5.218448139e-06	-9.50914714
3304.016138	1.921383366	5.291387864e-06	-9.510847663
3312.895635	1.921709335	5.345284917e-06	-9.512461207
3321.775131	1.92202572	5.395513835e-06	-9.514027315
3330.654628	1.922321775	5.501499832e-06	-9.515492786
3339.534125	1.922609611	5.643841797e-06	-9.516917577
3348.413621	1.923117742	5.873335968e-06	-9.519432824
3357.293118	1.923792648	6.73380152e-06	-9.522773609
3366.172615	1.923226999	2.772416431e-06	-9.519973647
3375.052111	1.923313323	6.555155318e-06	-9.520400948
3383.931608	1.923616972	5.289089145e-06	-9.521904011
3392.811104	1.924358663	6.228527319e-06	-9.525575384
3401.690601	1.924787761	5.803373089e-06	-9.527699415
3410.570098	1.925031706	5.990238708e-06	-9.528906944
3419.449594	1.925171641	5.994669078e-06	-9.529599623
3428.329091	1.926148102	6.006448962e-06	-9.534433105
3437.208588	1.927419291	6.06962774e-06	-9.540725488
3446.088084	1.927701289	6.129079074e-06	-9.542121378
3454.967581	1.928174561	6.132644848e-06	-9.544464079
3463.847078	1.928873956	6.259155894e-06	-9.547926082
3472.726574	1.928485147	6.231122989e-06	-9.546001478
3481.606071	1.929020321	6.406351507e-06	-9.548650591
3490.485568	1.929315389	6.446917836e-06	-9.550111173
3499.365064	1.929368778	6.434140478e-06	-9.550375451
3508.244561	1.928877659	6.357533787e-06	-9.54794441
3517.124058	1.929246424	6.589828533e-06	-9.549769798
3526.003554	1.92923502	6.589448896e-06	-9.549713347
3534.883051	1.929448276	6.628784484e-06	-9.550768968
3543.709057	1.929417936	6.627073981e-06	-9.550618783
3552.535062	1.929647359	7.123132457e-06	-9.551754429
3561.361068	1.930325602	6.981448821e-06	-9.555111731
3570.187074	1.93113542	7.237525067e-06	-9.559120329
3579.01308	1.931794334	7.203674365e-06	-9.562381951
3587.839085	1.931728621	6.454427303e-06	-9.562056673
3596.665091	1.931410015	8.085985323e-06	-9.560479576
3605.491097	1.930417103	5.590642369e-06	-9.555564659
3614.317103	1.930263034	6.078786588e-06	-9.554802021
3623.143108	1.930695767	7.12364319e-06	-9.556944047
3631.969114	1.93139494	7.288393814e-06	-9.560404954
3640.79512	1.93150031	7.293699328e-06	-9.560926534
3649.621125	1.931461125	7.316673109e-06	-9.56073257
3658.447131	1.93142346	7.352431009e-06	-9.560546125
3667.273137	1.931397915	7.390253978e-06	-9.56041968
3676.099143	1.931388384	7.427214806e-06	-9.560372499
3684.925148	1.931420501	7.477692451e-06	-9.560531481
3693.751154	1.931629528	7.498401253e-06	-9.561566162
3702.57716	1.930918549	7.556990946e-06	-9.558046818
3711.403165	1.930844511	7.576106306e-06	-9.55768033
3720.229171	1.93088533	7.600500592e-06	-9.557882384
3729.055177	1.93091146	7.638604337e-06	-9.558011725
3737.881183	1.93093837	7.659072671e-06	-9.558144931
3746.707188	1.931009503	7.67143547e-06	-9.558497038
3755.533194	1.931137365	7.68140284e-06	-9.559129958
3764.3592	1.930556805	7.64816378e-06	-9.556256185
3773.185205	1.930135372	9.754708553e-06	-9.554170093
3782.011211	1.930186649	8.533325461e-06	-9.554423913
3790.837217	1.930149479	8.185950867e-06	-9.554239923
3799.663223	1.930078975	8.169427173e-06	-9.553890924
3808.489228	1.93000522	8.188464731e-06	-9.55352584
3817.315234	1.930123584	1.173614675e-05	-9.554111742
3826.14124	1.930245216	7.342844127e-06	-9.554713822
3834.967245	1.929511953	7.703362933e-06	-9.551084167
3843.793251	1.929180983	8.000544272e-06	-9.549445864
3852.619257	1.928931217	8.142648054e-06	-9.548209523
3861.445263	1.928643718	8.213048537e-06	-9.546786405
3870.271268	1.928283387	8.237852409e-06	-9.545002764
3879.097274	1.927943845	8.272323579e-06	-9.543322034
3887.92328	1.928233259	7.914469619e-06	-9.544754631
3896.749285	1.928290981	1.042737937e-05	-9.545040357
3905.575291	1.928609075	8.8553648e-06	-9.546614923
3914.401297	1.928601784	9.575643427e-06	-9.54657883
3923.227303	1.928681802	8.654975735e-06	-9.546974918
3932.053308	1.928287934	8.622747898e-06	-9.545025272
3940.879314	1.928080058	8.841460087e-06	-9.54399629
3949.70532	1.927807835	8.581422262e-06	-9.542648784
3958.531325	1.927527136	8.8652434e-06	-9.541259325
3967.357331	1.927257336	8.879649804e-06	-9.539923814
3976.183337	1.926989011	8.925436336e-06	-9.538595607
3985.009343	1.926722668	8.981534119e-06	-9.537277206
3993.835348	1.926456458	9.01560898e-06	-9.535959468
4002.661354	1.926188639	9.052385652e-06	-9.534633761
4011.48736	1.925916917	9.078462782e-06	-9.533288737
4020.313365	1.925633462	9.09013367e-06	-9.531885637
4029.139371	1.92530641	8.996398642e-06	-9.53026673
4037.965377	1.925051155	9.463202649e-06	-9.529003216
4046.791383	1.925415373	9.216491826e-06	-9.530806095
4055.617388	1.924767052	9.002072219e-06	-9.52759691
4064.443394	1.924207568	1.020020654e-05	-9.524827463
4073.2694	1.923673491	1.160896426e-05	-9.522183779
4082.095405	1.923613826	8.879031825e-06	-9.52188844
4090.921411	1.923532027	9.129601353e-06	-9.521483531
4099.747417	1.922758298	9.141414563e-06	-9.517653577
4108.573423	1.922232651	9.404806853e-06	-9.515051623
4117.399428	1.92191506	9.445490017e-06	-9.513479545
4126.225434	1.921498941	9.578709135e-06	-9.511419757
4135.05144	1.921093954	9.59770601e-06	-9.509415075
4143.877445	1.920684056	9.643104709e-06	-9.507386075
4152.703451	1.920188685	9.757294768e-06	-9.504933991
4161.529457	1.919765964	9.651644376e-06	-9.502841519
4170.355463	1.919387302	9.750620276e-06	-9.500967147
4179.181468	1.919330681	9.778007509e-06	-9.500686871
4188.007474	1.919351556	9.818694922e-06	-9.500790203
4196.83348	1.918871972	9.82286553e-06	-9.498416261
4205.659486	1.918379248	9.848978097e-06	-9.495977279
4214.485491	1.917862786	1.009831465e-05	-9.493420789
4223.311497	1.918027507	9.998156242e-06	-9.494236161
4232.137503	1.917936339	1.004226284e-05	-9.493784878
4240.963508	1.917938444	1.016942623e-05	-9.4937953
4249.789514	1.917553123	1.021659028e-05	-9.491887957
4258.61552	1.91724009	1.076123915e-05	-9.490338445
4267.441526	1.916537789	8.922491852e-06	-9.486862056
4276.267531	1.915657766	9.29988091e-06	-9.482505944
4285.093537	1.915441955	1.021628835e-05	-9.481437676
4293.919543	1.915037048	9.969813577e-06	-9.479433387
4302.745548	1.914645184	1.010210927e-05	-9.477493661
4311.571554	1.914247066	1.012623667e-05	-9.475522975
4320.39756	1.913843947	1.013587052e-05	-9.473527539
4329.223566	1.913459379	1.014888782e-05	-9.471623928
4338.049571	1.913071607	1.015940073e-05	-9.469704456
4346.875577	1.912692423	1.017287741e-05	-9.467827492
4355.701583	1.912343496	1.017111979e-05	-9.466100304
4364.527588	1.912044157	1.017845522e-05	-9.464618578
4373.353594	1.911972781	1.010986014e-05	-9.464265264
4382.1796	1.911206347	1.047245168e-05	-9.460471418
4391.005606	1.910147113	1.014079739e-05	-9.45522821
4399.831611	1.90962797	1.026679188e-05	-9.45265845
4408.657617	1.908743783	1.016925143e-05	-9.448281727
4417.483623	1.908480479	1.020982098e-05	-9.446978372
4426.309628	1.908059245	1.017955941e-05	-9.444893264
4435.135634	1.907634945	1.014707401e-05	-9.44279298
4443.96164	1.907193135	1.010025785e-05	-9.440606021
4452.787646	1.906760588	1.156744057e-05	-9.438464913
4461.613651	1.906300487	1.059461483e-05	-9.436187411
4470.439657	1.905803786	1.034150628e-05	-9.433728739
4479.265663	1.905237505	1.026299373e-05	-9.43092565
4488.091668	1.904731996	1.034287712e-05	-9.42842338
4496.917674	1.904617894	1.167070654e-05	-9.427858577
4505.74368	1.904496649	1.028254104e-05	-9.427258413
4514.569686	1.904013038	1.012355926e-05	-9.424864538
4523.395691	1.903522243	1.015271387e-05	-9.422435104
4532.221697	1.903045493	1.017872383e-05	-9.420075189
4541.047703	1.90257803	1.018945661e-05	-9.417761246
4549.873708	1.902117916	1.017541827e-05	-9.415483683
4558.699714	1.901682053	1.01564175e-05	-9.413326161
4567.52572	1.90121086	1.010537716e-05	-9.410993756
4576.351726	1.900736757	1.104384282e-05	-9.408646948
4585.177731	1.900472849	1.065077802e-05	-9.407340602
4594.003737	1.900007667	9.779946558e-06	-9.40503795
4602.829743	1.899156597	1.029069899e-05	-9.400825156
4611.655748	1.898589856	1.023255781e-05	-9.398019788
4620.481754	1.897935556	1.009071842e-05	-9.394781003
4629.30776	1.897693684	1.008556012e-05	-9.393583736
4638.133766	1.89753394	1.026432967e-05	-9.392793005
4646.959771	1.897210487	1.013362558e-05	-9.391191911
4655.785777	1.897211148	1.019226266e-05	-9.391195182
4664.611783	1.896766742	1.032243425e-05	-9.388995372
4673.437788	1.896414645	1.04246806e-05	-9.387252495
4682.263794	1.895551874	1.02285713e-05	-9.382981779
4691.0898	1.894929093	1.005599833e-05	-9.379899008
4699.915806	1.894466123	1.035878009e-05	-9.377607308
4708.741811	1.893990797	9.773499122e-06	-9.375254446
4717.567817	1.893519431	1.003102739e-05	-9.372921185
4726.393823	1.893054459	9.918187981e-06	-9.370619571
4735.219829	1.892588417	9.94339314e-06	-9.368312663
4744.045834	1.892149399	9.869179793e-06	-9.366139527
4752.87184	1.891717518	9.842470307e-06	-9.364001712
4761.697846	1.891324813	9.80328705e-06	-9.362057822
4770.523851	1.890931278	9.70621761e-06	-9.360109824
4779.349857	1.890058241	9.520712625e-06	-9.355788291
4788.175863	1.889487087	1.028184007e-05	-9.352961081
4797.001869	1.888783135	1.083266801e-05	-9.349476516
4805.827874	1.888453552	9.480677668e-06	-9.34784508
4814.65388	1.887997949	9.484978555e-06	-9.345589848
4823.479886	1.887535409	9.524180773e-06	-9.343300277
4832.305891	1.887065375	9.526437375e-06	-9.340973608
4841.131897	1.886586405	9.514493746e-06	-9.338602706
4849.957903	1.886098622	9.481666739e-06	-9.336188181
4858.783909	1.88558789	9.447692414e-06	-9.333660055
4867.609914	1.885009005	9.666683683e-06	-9.330794574
4876.43592	1.884738857	9.577135272e-06	-9.329457344
4885.261926	1.884542736	9.536745296e-06	-9.328486545
4894.087931	1.884237678	9.301984824e-06	-9.326976507
4902.913937	1.883859992	9.251032561e-06	-9.325106962
4911.739943	1.886246125	9.306731442e-06	-9.336918317
4919.763584	1.885924438	9.058592859e-06	-9.33532597
4927.787226	1.885291588	9.197131904e-06	-9.332193359
4935.810868	1.884532548	9.144238542e-06	-9.328436114
4943.834509	1.883522377	9.094836375e-06	-9.323435768
4951.858151	1.88278218	9.050094829e-06	-9.319771791
4959.881792	1.882080281	9.008454509e-06	-9.316297391
4967.905434	1.881316243	8.940715798e-06	-9.312515401
4975.929075	1.88092618	8.61211239e-06	-9.310584593
4983.952717	1.880526118	9.01928056e-06	-9.308604283
4991.976358	1.879805222	9.018930747e-06	-9.305035851
5000	1.876183037	8.379930563e-06	-9.287106034
5008.818342	1.875623444	9.275732512e-06	-9.284336046
5017.636684	1.875387552	8.735164411e-06	-9.283168382
5026.455026	1.875225089	8.649587159e-06	-9.282364189
5035.273369	1.875235046	8.628787319e-06	-9.282413478