/*--------------------------------*- C++ -*----------------------------------*\
| =========                 |                                                 |
| \\      /  F ield         | foam-extend: Open Source CFD                    |
|  \\    /   O peration     | Version:     4.1                                |
|   \\  /    A nd           | Web:         http://www.foam-extend.org         |
|    \\/     M anipulation  |                                                 |
\*---------------------------------------------------------------------------*/
FoamFile
{
    version     2.0;
    format      ascii;
    class       volScalarField;
    location    "120000";
    object      p;
}
// * * * * * * * * * * * * * * * * * * * * * * * * * * * * * * * * * * * * * //

dimensions      [0 2 -2 0 0 0 0];

internalField   nonuniform List<scalar> 
15920
(
2.038018079e-08
1.755637902e-08
1.536855074e-08
1.425537045e-08
1.346374674e-08
1.264755438e-08
1.18542817e-08
1.116182459e-08
1.057364369e-08
1.006827002e-08
9.634905441e-09
9.270265801e-09
8.969420979e-09
8.724373447e-09
8.526163798e-09
8.366205275e-09
8.236579751e-09
8.130129753e-09
8.040602884e-09
7.962744601e-09
7.892283614e-09
7.825845568e-09
7.760838677e-09
7.695332462e-09
7.627937293e-09
7.557695112e-09
7.483982673e-09
7.406428678e-09
7.324846134e-09
7.23917922e-09
7.149462655e-09
7.055791547e-09
6.958300013e-09
6.857152699e-09
6.752521275e-09
6.644577098e-09
6.533495626e-09
6.419456915e-09
6.302646022e-09
6.183255067e-09
6.061487509e-09
5.937562069e-09
5.811686334e-09
5.684075457e-09
5.554967416e-09
5.424614047e-09
5.293279485e-09
5.161238727e-09
5.0287756e-09
4.896180916e-09
1.507087172e-08
1.472195181e-08
1.415798701e-08
1.363544226e-08
1.313152668e-08
1.25649165e-08
1.196116144e-08
1.137572734e-08
1.083449239e-08
1.034376923e-08
9.907598016e-09
9.529659134e-09
9.209691015e-09
8.943116922e-09
8.722965715e-09
8.541662512e-09
8.391842552e-09
8.266669481e-09
8.160051162e-09
8.066781248e-09
7.982566559e-09
7.903966756e-09
7.828295582e-09
7.753511849e-09
7.678090831e-09
7.600933565e-09
7.521281242e-09
7.438635912e-09
7.352694592e-09
7.263297048e-09
7.170385111e-09
7.07397107e-09
6.974112239e-09
6.870890251e-09
6.764425226e-09
6.654867928e-09
6.542373478e-09
6.427098322e-09
6.309204801e-09
6.188863883e-09
6.066258027e-09
5.941586486e-09
5.81507787e-09
5.686950982e-09
5.55742825e-09
5.426756559e-09
5.295200216e-09
5.163034291e-09
5.030542977e-09
4.898018057e-09
1.453960742e-08
1.437802673e-08
1.393936624e-08
1.338479334e-08
1.285115836e-08
1.23413218e-08
1.183578097e-08
1.13461577e-08
1.088969513e-08
1.047285466e-08
1.009609095e-08
9.759508593e-09
9.46277671e-09
9.203808754e-09
8.979140705e-09
8.78472924e-09
8.616378476e-09
8.469884288e-09
8.341164946e-09
8.226415826e-09
8.122225598e-09
8.025629413e-09
7.934115299e-09
7.845608883e-09
7.758464432e-09
7.671394359e-09
7.583405715e-09
7.493752912e-09
7.401895298e-09
7.307457052e-09
7.210191622e-09
7.109952109e-09
7.0066679e-09
6.900328163e-09
6.790972587e-09
6.678677356e-09
6.563541145e-09
6.445681283e-09
6.325234814e-09
6.202359034e-09
6.077231499e-09
5.950048936e-09
5.821023544e-09
5.690377097e-09
5.558348147e-09
5.425197403e-09
5.291203237e-09
5.156655346e-09
5.021852851e-09
4.887103333e-09
1.35402311e-08
1.33986129e-08
1.31175521e-08
1.276197482e-08
1.239203515e-08
1.201930723e-08
1.163758382e-08
1.125392415e-08
1.088292764e-08
1.053395382e-08
1.021035235e-08
9.91355407e-09
9.644474316e-09
9.402925662e-09
9.187456156e-09
8.995771162e-09
8.825145659e-09
8.672658163e-09
8.535341361e-09
8.410321689e-09
8.294934427e-09
8.186793433e-09
8.083820672e-09
7.984250834e-09
7.886619065e-09
7.789727845e-09
7.692613093e-09
7.594514898e-09
7.49484863e-09
7.393175776e-09
7.289177139e-09
7.182630111e-09
7.073390412e-09
6.961377628e-09
6.846563958e-09
6.728965048e-09
6.608632408e-09
6.485648359e-09
6.360123771e-09
6.23219642e-09
6.102030187e-09
5.96981379e-09
5.835757433e-09
5.700093206e-09
5.563074153e-09
5.424974454e-09
5.286087554e-09
5.146723959e-09
5.007207599e-09
4.867872588e-09
1.289377716e-08
1.282402363e-08
1.265525534e-08
1.240883017e-08
1.21227427e-08
1.181844398e-08
1.150270918e-08
1.118219485e-08
1.086660177e-08
1.056390097e-08
1.0278377e-08
1.001216103e-08
9.76649332e-09
9.541757779e-09
9.337333247e-09
9.151806247e-09
8.983308442e-09
8.829750377e-09
8.688955679e-09
8.558762578e-09
8.437110285e-09
8.322099711e-09
8.212026114e-09
8.10539119e-09
8.000902324e-09
7.897462884e-09
7.79415668e-09
7.690230075e-09
7.585073254e-09
7.47820113e-09
7.369235558e-09
7.257889772e-09
7.14395504e-09
7.027289639e-09
6.907810005e-09
6.785483555e-09
6.660322475e-09
6.532378228e-09
6.401739539e-09
6.268529166e-09
6.132902543e-09
5.995050954e-09
5.855200051e-09
5.713593734e-09
5.570501016e-09
5.426224565e-09
5.281091087e-09
5.135444539e-09
4.98964569e-09
4.844069044e-09
1.239751399e-08
1.234855504e-08
1.222600792e-08
1.203994556e-08
1.181653739e-08
1.157379609e-08
1.131915045e-08
1.105753801e-08
1.079537061e-08
1.053892147e-08
1.029250059e-08
1.005862419e-08
9.838802522e-09
9.633824939e-09
9.443740389e-09
9.267943866e-09
9.105378092e-09
8.954712176e-09
8.814457746e-09
8.683054271e-09
8.558943411e-09
8.440628964e-09
8.326717493e-09
8.215941966e-09
8.107173395e-09
7.999423563e-09
7.891840678e-09
7.783700695e-09
7.674396556e-09
7.563427029e-09
7.450385544e-09
7.334949695e-09
7.216871868e-09
7.095971507e-09
6.972128123e-09
6.845274957e-09
6.715394507e-09
6.582513556e-09
6.446708199e-09
6.308091504e-09
6.166815117e-09
6.023068534e-09
5.877091918e-09
5.729143455e-09
5.579507192e-09
5.428513147e-09
5.276523752e-09
5.123922086e-09
4.971110737e-09
4.818508863e-09
1.200328048e-08
1.196658435e-08
1.187586824e-08
1.173644884e-08
1.156446359e-08
1.137212589e-08
1.116574885e-08
1.094992524e-08
1.072987622e-08
1.051077497e-08
1.029658887e-08
1.008993678e-08
9.892518172e-09
9.705389227e-09
9.529011453e-09
9.363296415e-09
9.207725188e-09
9.061482541e-09
8.923560437e-09
8.792835203e-09
8.668132257e-09
8.548280253e-09
8.432151636e-09
8.318689752e-09
8.206925307e-09
8.095984809e-09
7.98509291e-09
7.873570575e-09
7.760830788e-09
7.646373045e-09
7.529777302e-09
7.41069782e-09
7.288857243e-09
7.164042061e-09
7.036100136e-09
6.904936453e-09
6.770503411e-09
6.632788577e-09
6.491865619e-09
6.347832912e-09
6.200837774e-09
6.051076579e-09
5.898780075e-09
5.744236946e-09
5.587782352e-09
5.429774422e-09
5.270602001e-09
5.110688694e-09
4.950484922e-09
4.790460261e-09
1.168672992e-08
1.165886655e-08
1.15897791e-08
1.148214109e-08
1.134638746e-08
1.119106194e-08
1.1021402e-08
1.084155002e-08
1.065579149e-08
1.046824444e-08
1.028224706e-08
1.010021578e-08
9.923841521e-09
9.754265636e-09
9.592140013e-09
9.437665251e-09
9.290667164e-09
9.150691847e-09
9.017087995e-09
8.889070985e-09
8.765775929e-09
8.646303023e-09
8.529754004e-09
8.415259062e-09
8.301995407e-09
8.189199278e-09
8.076172889e-09
7.962287633e-09
7.846984466e-09
7.729772918e-09
7.610229463e-09
7.487994911e-09
7.362771098e-09
7.234319126e-09
7.102457406e-09
6.967071136e-09
6.828089276e-09
6.685508719e-09
6.53934924e-09
6.389710342e-09
6.236744398e-09
6.080652229e-09
5.92168191e-09
5.760141118e-09
5.596386574e-09
5.430811947e-09
5.263852053e-09
5.095981941e-09
4.927708077e-09
4.759560184e-09
1.142930095e-08
1.140741944e-08
1.135306533e-08
1.12677415e-08
1.115875435e-08
1.103220366e-08
1.089207e-08
1.074168305e-08
1.05844522e-08
1.042365083e-08
1.026204488e-08
1.010177741e-08
9.944445952e-09
9.79119706e-09
9.64277408e-09
9.499550661e-09
9.361581949e-09
9.228669237e-09
9.100421279e-09
8.976305713e-09
8.855692806e-09
8.737893627e-09
8.622192242e-09
8.507871178e-09
8.394230487e-09
8.280601459e-09
8.166356166e-09
8.050914192e-09
7.933746256e-09
7.814375127e-09
7.692377133e-09
7.567386074e-09
7.439083557e-09
7.307224005e-09
7.171605161e-09
7.0320697e-09
6.888529936e-09
6.740959931e-09
6.589384173e-09
6.433891389e-09
6.274630957e-09
6.111811215e-09
5.945701826e-09
5.776631497e-09
5.604986324e-09
5.431206139e-09
5.255780191e-09
5.079242691e-09
4.902166007e-09
4.725152152e-09
1.121819214e-08
1.120061808e-08
1.115696974e-08
1.10881593e-08
1.099950498e-08
1.089538364e-08
1.07787006e-08
1.065203934e-08
1.051812535e-08
1.037960391e-08
1.023876377e-08
1.00974529e-08
9.957113858e-09
9.818832258e-09
9.683365858e-09
9.551169169e-09
9.422428532e-09
9.297106369e-09
9.17498594e-09
9.055711598e-09
8.938824329e-09
8.823793353e-09
8.710043528e-09
8.596978076e-09
8.483996662e-09
8.370509106e-09
8.255945746e-09
8.139765973e-09
8.021467137e-09
7.90058896e-09
7.776696254e-09
7.649420365e-09
7.518437948e-09
7.383462576e-09
7.244268897e-09
7.100685954e-09
6.952606454e-09
6.799984575e-09
6.642834852e-09
6.481237658e-09
6.315341728e-09
6.145365183e-09
5.971596248e-09
5.794392283e-09
5.614179302e-09
5.431448297e-09
5.246749497e-09
5.060686775e-09
4.873910632e-09
4.687108902e-09
1.104425728e-08
1.102991373e-08
1.099428668e-08
1.093793703e-08
1.086485615e-08
1.077825631e-08
1.068026277e-08
1.057286064e-08
1.045821575e-08
1.033845687e-08
1.021545458e-08
1.00907627e-08
9.965639111e-09
9.841068093e-09
9.717772286e-09
9.596227063e-09
9.476684147e-09
9.359201981e-09
9.243677666e-09
9.129877311e-09
9.017463958e-09
8.906023052e-09
8.795085091e-09
8.684145183e-09
8.572679875e-09
8.460160458e-09
8.346062484e-09
8.229873332e-09
8.111104128e-09
7.989304081e-09
7.864052979e-09
7.734941779e-09
7.601625598e-09
7.463804492e-09
7.321228708e-09
7.173704267e-09
7.021097045e-09
6.863337663e-09
6.700425086e-09
6.532430839e-09
6.359503096e-09
6.18186958e-09
5.999839394e-09
5.813803456e-09
5.624233515e-09
5.431678948e-09
5.236761292e-09
5.040167315e-09
4.842640526e-09
4.644970689e-09
1.090064685e-08
1.088878119e-08
1.085930586e-08
1.081256965e-08
1.075165242e-08
1.067896671e-08
1.059607297e-08
1.050447876e-08
1.040588662e-08
1.030199875e-08
1.019433429e-08
1.008418426e-08
9.972624101e-09
9.860521584e-09
9.748537421e-09
9.637131277e-09
9.526576832e-09
9.416982341e-09
9.308313004e-09
9.200413236e-09
9.09302808e-09
8.985823358e-09
8.878403942e-09
8.770329763e-09
8.661130813e-09
8.550321526e-09
8.437412367e-09
8.321911563e-09
8.203338174e-09
8.08121819e-09
7.955114738e-09
7.824622786e-09
7.68936834e-09
7.549017865e-09
7.403288614e-09
7.251953699e-09
7.094847618e-09
6.93187336e-09
6.763008421e-09
6.588310753e-09
6.407924816e-09
6.222086592e-09
6.03112701e-09
5.835473382e-09
5.635648847e-09
5.432269776e-09
5.226040621e-09
5.017746026e-09
4.808240399e-09
4.598435275e-09
1.078210712e-08
1.07721852e-08
1.07475374e-08
1.070838059e-08
1.06571413e-08
1.059566378e-08
1.05250983e-08
1.044658451e-08
1.036145583e-08
1.02710707e-08
1.017665869e-08
1.007928295e-08
9.979848091e-09
9.879101013e-09
9.777625327e-09
9.675841515e-09
9.574015554e-09
9.472272377e-09
9.370611162e-09
9.26892124e-09
9.16699807e-09
9.064559076e-09
8.961258475e-09
8.856698817e-09
8.750443765e-09
8.642027381e-09
8.530988962e-09
8.416834943e-09
8.299070813e-09
8.177217262e-09
8.05081662e-09
7.919432733e-09
7.782654718e-09
7.640109922e-09
7.491473906e-09
7.33647744e-09
7.17491448e-09
7.006651053e-09
6.831634148e-09
6.649900585e-09
6.461585501e-09
6.266929605e-09
6.066284517e-09
5.8601158e-09
5.649003577e-09
5.433640661e-09
5.214827667e-09
4.993464377e-09
4.770537281e-09
4.547104211e-09
1.068451971e-08
1.067615426e-08
1.065537269e-08
1.062230729e-08
1.057890088e-08
1.052658495e-08
1.046621274e-08
1.039864587e-08
1.032492762e-08
1.024613967e-08
1.016327242e-08
1.007719365e-08
9.988653632e-09
9.898282536e-09
9.806581685e-09
9.713919866e-09
9.620537218e-09
9.526553517e-09
9.431978181e-09
9.336721135e-09
9.240604033e-09
9.143371869e-09
9.044706521e-09
8.944237551e-09
8.841547204e-09
8.736187782e-09
8.627665763e-09
8.515494482e-09
8.399174376e-09
8.278200344e-09
8.152075284e-09
8.020317995e-09
7.882471399e-09
7.738112283e-09
7.586861482e-09
7.428393901e-09
7.262449149e-09
7.088843169e-09
6.907480404e-09
6.71836584e-09
6.521616286e-09
6.317470358e-09
6.106296563e-09
5.888598944e-09
5.665019646e-09
5.43633801e-09
5.203465847e-09
4.967438236e-09
4.729399207e-09
4.490582914e-09
1.060458854e-08
1.059749333e-08
1.057986751e-08
1.055178856e-08
1.051483189e-08
1.047012288e-08
1.041829801e-08
1.036000924e-08
1.029607243e-08
1.022734718e-08
1.01546279e-08
1.007861763e-08
9.999931472e-09
9.919092219e-09
9.836520134e-09
9.752527023e-09
9.667316856e-09
9.580990264e-09
9.493550641e-09
9.404911331e-09
9.314902765e-09
9.223278942e-09
9.129731014e-09
9.033902418e-09
8.935375857e-09
8.833685084e-09
8.728336781e-09
8.618822669e-09
8.504612358e-09
8.385161336e-09
8.259924038e-09
8.128364009e-09
7.989962921e-09
7.844230556e-09
7.690716437e-09
7.529022426e-09
7.358816419e-09
7.179847282e-09
6.991960513e-09
6.795113858e-09
6.589392183e-09
6.375021134e-09
6.152379075e-09
5.922006464e-09
5.684611324e-09
5.441069841e-09
5.192421934e-09
4.939861678e-09
4.684721436e-09
4.428448905e-09
1.053962497e-08
1.053358565e-08
1.05185835e-08
1.049466057e-08
1.046310641e-08
1.042481477e-08
1.038026261e-08
1.032994377e-08
1.027449664e-08
1.021460348e-08
1.015089924e-08
1.008394964e-08
1.001425347e-08
9.942237448e-09
9.868245647e-09
9.792532331e-09
9.715260434e-09
9.63650324e-09
9.556247489e-09
9.47439715e-09
9.39077891e-09
9.3051482e-09
9.217195276e-09
9.126538897e-09
9.032753828e-09
8.935371159e-09
8.833876555e-09
8.727719455e-09
8.61632394e-09
8.499094512e-09
8.375424925e-09
8.244708332e-09
8.106347517e-09
7.95976636e-09
7.804423185e-09
7.639825925e-09
7.465549097e-09
7.281252352e-09
7.086700074e-09
6.881781339e-09
6.666529624e-09
6.441141566e-09
6.205993985e-09
5.96165808e-09
5.708909195e-09
5.448730394e-09
5.182309047e-09
4.911026529e-09
4.636440228e-09
4.360256114e-09
1.048739551e-08
1.048224992e-08
1.046946861e-08
1.044907107e-08
1.042211961e-08
1.03893295e-08
1.035105964e-08
1.030768471e-08
1.025970483e-08
1.020766109e-08
1.015205926e-08
1.009335159e-08
1.003193826e-08
9.968162016e-09
9.902297834e-09
9.834545254e-09
9.765025331e-09
9.693780237e-09
9.620773964e-09
9.545893851e-09
9.468953943e-09
9.38969854e-09
9.307798244e-09
9.222861346e-09
9.134443522e-09
9.042046681e-09
8.945119412e-09
8.84306588e-09
8.735254649e-09
8.621024668e-09
8.499693219e-09
8.370565746e-09
8.232946825e-09
8.086152919e-09
7.929527606e-09
7.7624595e-09
7.584402687e-09
7.394899187e-09
7.193603067e-09
6.980305869e-09
6.754962755e-09
6.517718212e-09
6.268929814e-09
6.009188706e-09
5.739335358e-09
5.460468353e-09
5.173943703e-09
4.881363751e-09
4.58455572e-09
4.285538879e-09
1.044601149e-08
1.044163588e-08
1.043076757e-08
1.041341235e-08
1.039044826e-08
1.036245077e-08
1.032969114e-08
1.029245451e-08
1.025113338e-08
1.020615678e-08
1.015792647e-08
1.010680185e-08
1.005310073e-08
9.997094079e-09
9.938996091e-09
9.878956498e-09
9.81705641e-09
9.753306256e-09
9.687644644e-09
9.619938825e-09
9.54998301e-09
9.477500311e-09
9.402145092e-09
9.323506474e-09
9.241108882e-09
9.154414863e-09
9.062828397e-09
8.965699283e-09
8.862329044e-09
8.75197717e-09
8.633868511e-09
8.507202454e-09
8.371164095e-09
8.2249381e-09
8.067725903e-09
7.898766359e-09
7.717359614e-09
7.52289393e-09
7.3148753e-09
7.09295967e-09
6.85698719e-09
6.607016984e-09
6.343360303e-09
6.066609973e-09
5.777664452e-09
5.477743973e-09
5.168394797e-09
4.851478689e-09
4.529147717e-09
4.203804693e-09
1.041384755e-08
1.041014674e-08
1.040095425e-08
1.038626841e-08
1.036681503e-08
1.034305851e-08
1.031520521e-08
1.028347341e-08
1.024817215e-08
1.020964189e-08
1.016820128e-08
1.012413457e-08
1.0077692e-08
1.00290845e-08
9.978474468e-09
9.92596806e-09
9.871610236e-09
9.81538167e-09
9.757195974e-09
9.696896949e-09
9.634258137e-09
9.568982412e-09
9.500701749e-09
9.428976955e-09
9.35329763e-09
9.273083748e-09
9.187687175e-09
9.096393923e-09
8.998428132e-09
8.892957072e-09
8.779097261e-09
8.65592266e-09
8.522475797e-09
8.377782518e-09
8.220870742e-09
8.050793379e-09
7.866655554e-09
7.667646411e-09
7.453075506e-09
7.222413423e-09
6.97533586e-09
6.711769884e-09
6.431940041e-09
6.136410997e-09
5.826123555e-09
5.502420974e-09
5.167061162e-09
4.822209726e-09
4.470411899e-09
4.114543961e-09
1.03894808e-08
1.0386381e-08
1.037868006e-08
1.036637344e-08
1.035005902e-08
1.033011184e-08
1.030669069e-08
1.027996458e-08
1.025017828e-08
1.02176027e-08
1.018249082e-08
1.014506711e-08
1.010552746e-08
1.006403404e-08
1.002070656e-08
9.975614717e-09
9.928772885e-09
9.880135157e-09
9.829592268e-09
9.776967289e-09
9.722013809e-09
9.664413621e-09
9.603774273e-09
9.53962696e-09
9.471424835e-09
9.398541989e-09
9.320273088e-09
9.235833843e-09
9.144362538e-09
9.044922623e-09
8.936506904e-09
8.81804446e-09
8.688411226e-09
8.546444829e-09
8.39096404e-09
8.220793322e-09
8.03479332e-09
7.831898085e-09
7.61115934e-09
7.371797221e-09
7.113256595e-09
6.835267907e-09
6.537910401e-09
6.221673361e-09
5.887509869e-09
5.536878541e-09
5.171768561e-09
4.794700947e-09
4.408699603e-09
4.01723074e-09
1.037164525e-08
1.036908866e-08
1.036273481e-08
1.035257968e-08
1.033911202e-08
1.032263424e-08
1.03032709e-08
1.02811556e-08
1.02564842e-08
1.022947373e-08
1.020032614e-08
1.016921945e-08
1.013630727e-08
1.010171369e-08
1.00655249e-08
1.002778133e-08
9.988472669e-09
9.947533399e-09
9.904835391e-09
9.860184625e-09
9.813317707e-09
9.763897703e-09
9.711509723e-09
9.655656731e-09
9.595755781e-09
9.531134765e-09
9.461029719e-09
9.384582564e-09
9.300839458e-09
9.208750357e-09
9.107170742e-09
8.994866529e-09
8.870522941e-09
8.73275803e-09
8.580141606e-09
8.411220755e-09
8.224553248e-09
8.018750095e-09
7.792528093e-09
7.544772359e-09
7.274608058e-09
6.981479986e-09
6.665237877e-09
6.326222897e-09
5.965347982e-09
5.584164338e-09
5.1849072e-09
4.7705113e-09
4.344584477e-09
3.911333543e-09
1.035919754e-08
1.035713842e-08
1.035201712e-08
1.034383282e-08
1.033297988e-08
1.031970118e-08
1.030409752e-08
1.028627814e-08
1.026640249e-08
1.024464665e-08
1.022117422e-08
1.019612845e-08
1.016963147e-08
1.014178013e-08
1.011263293e-08
1.008221106e-08
1.005048999e-08
1.001738869e-08
9.982766065e-09
9.946417098e-09
9.908067236e-09
9.867366e-09
9.823880665e-09
9.777090274e-09
9.726379811e-09
9.671034423e-09
9.610233607e-09
9.543045384e-09
9.46842092e-09
9.385190537e-09
9.292062086e-09
9.187622503e-09
9.070343226e-09
8.93859053e-09
8.790642396e-09
8.624713758e-09
8.438991837e-09
8.231683195e-09
8.001074228e-09
7.745606599e-09
7.463967574e-09
7.155193538e-09
6.818784083e-09
6.454822682e-09
6.064095901e-09
5.64819909e-09
5.209615828e-09
4.751757448e-09
4.278945833e-09
3.79632642e-09
1.035109176e-08
1.034949338e-08
1.034551245e-08
1.033915344e-08
1.033072818e-08
1.032043038e-08
1.03083454e-08
1.029456706e-08
1.027922861e-08
1.026247607e-08
1.024444597e-08
1.022525849e-08
1.020501425e-08
1.018378345e-08
1.01616139e-08
1.01385197e-08
1.011446524e-08
1.00893618e-08
1.00630639e-08
1.003536369e-08
1.000598306e-08
9.974565419e-09
9.940667911e-09
9.903753688e-09
9.863183658e-09
9.818207603e-09
9.767954661e-09
9.7114234e-09
9.647472204e-09
9.5748109e-09
9.491994385e-09
9.397418899e-09
9.289321888e-09
9.165787058e-09
9.024756913e-09
8.864055273e-09
8.681422219e-09
8.474563844e-09
8.241219677e-09
7.979250956e-09
7.686751638e-09
7.362181332e-09
7.004517388e-09
6.613422326e-09
6.189418374e-09
5.734052795e-09
5.250032767e-09
4.741308164e-09
4.213077441e-09
3.671691253e-09
1.034636117e-08
1.034519348e-08
1.034227688e-08
1.033762324e-08
1.033147147e-08
1.032397432e-08
1.031520851e-08
1.030525972e-08
1.029424349e-08
1.028228474e-08
1.026950197e-08
1.025600177e-08
1.024187913e-08
1.02271749e-08
1.021194467e-08
1.019620093e-08
1.017990374e-08
1.016296623e-08
1.014524921e-08
1.012655167e-08
1.010660127e-08
1.008504546e-08
1.006144245e-08
1.003525124e-08
1.000582063e-08
9.972376836e-09
9.934009929e-09
9.889659463e-09
9.838100012e-09
9.777927202e-09
9.707544671e-09
9.625152819e-09
9.528740804e-09
9.416083736e-09
9.284747629e-09
9.132105133e-09
8.955365812e-09
8.75162506e-09
8.51793594e-09
8.251408679e-09
7.949342549e-09
7.609392777e-09
7.229771423e-09
6.809478114e-09
6.348552027e-09
5.848325967e-09
5.311652195e-09
4.743064641e-09
4.148837151e-09
3.53689066e-09
1.034410596e-08
1.034334294e-08
1.034142545e-08
1.033837508e-08
1.033436536e-08
1.032951481e-08
1.032389705e-08
1.031759574e-08
1.031071622e-08
1.030337134e-08
1.029566955e-08
1.028771417e-08
1.027957199e-08
1.027132274e-08
1.026300399e-08
1.025463059e-08
1.024617657e-08
1.023756808e-08
1.022868109e-08
1.021933153e-08
1.020926466e-08
1.019814524e-08
1.018554687e-08
1.017093985e-08
1.01536771e-08
1.013297826e-08
1.01079119e-08
1.007737643e-08
1.004007996e-08
9.994519233e-09
9.938957985e-09
9.871405891e-09
9.789599828e-09
9.690989743e-09
9.572731539e-09
9.431690469e-09
9.26446031e-09
9.06740483e-09
8.836728195e-09
8.568581149e-09
8.259211327e-09
7.905166204e-09
7.503552793e-09
7.052351758e-09
6.550777425e-09
5.999663385e-09
5.401834032e-09
4.76240559e-09
4.088949364e-09
3.391437723e-09
1.034348691e-08
1.03431015e-08
1.034212367e-08
1.034058573e-08
1.033860104e-08
1.03362594e-08
1.033363591e-08
1.033081724e-08
1.032790436e-08
1.032500357e-08
1.032221935e-08
1.031965053e-08
1.031738932e-08
1.03155104e-08
1.031406449e-08
1.031307542e-08
1.031253498e-08
1.031239569e-08
1.031256096e-08
1.031287572e-08
1.031311676e-08
1.031298181e-08
1.031207713e-08
1.030990325e-08
1.030583803e-08
1.02991173e-08
1.028881297e-08
1.027380881e-08
1.025277367e-08
1.022413193e-08
1.018603169e-08
1.013631168e-08
1.007246854e-08
9.991626448e-09
9.890512009e-09
9.765438344e-09
9.612304509e-09
9.426618916e-09
9.20355693e-09
8.938063605e-09
8.625014698e-09
8.259451939e-09
7.836906575e-09
7.353817153e-09
6.808038316e-09
6.199423365e-09
5.530433071e-09
4.806681762e-09
4.037299212e-09
3.234965386e-09
1.034371869e-08
1.034367606e-08
1.034358062e-08
1.034347039e-08
1.034340147e-08
1.034343951e-08
1.034366487e-08
1.034417138e-08
1.034506114e-08
1.034644067e-08
1.034841679e-08
1.035108915e-08
1.035457773e-08
1.035897255e-08
1.036433492e-08
1.037070622e-08
1.037811132e-08
1.038653985e-08
1.039593302e-08
1.040617763e-08
1.041709744e-08
1.042844094e-08
1.043986704e-08
1.045092882e-08
1.046105455e-08
1.046952525e-08
1.047544878e-08
1.047773014e-08
1.047503738e-08
1.046576276e-08
1.044797953e-08
1.041939484e-08
1.037729934e-08
1.031851517e-08
1.023934543e-08
1.013552985e-08
1.00022132e-08
9.833935622e-09
9.624659186e-09
9.367847868e-09
9.056621532e-09
8.684009035e-09
8.243329093e-09
7.728722736e-09
7.135850547e-09
6.462753577e-09
5.710840781e-09
4.885894296e-09
3.998884334e-09
3.066265927e-09
1.034402508e-08
1.034430563e-08
1.034504237e-08
1.034627896e-08
1.034801979e-08
1.035031077e-08
1.035324055e-08
1.03569138e-08
1.036143839e-08
1.036692638e-08
1.037349497e-08
1.038126376e-08
1.039034007e-08
1.040087241e-08
1.041293317e-08
1.042659939e-08
1.044193212e-08
1.045896481e-08
1.047769114e-08
1.049805524e-08
1.051994322e-08
1.054317272e-08
1.056747755e-08
1.059248927e-08
1.061771643e-08
1.064252002e-08
1.066608394e-08
1.068737992e-08
1.070512614e-08
1.071773904e-08
1.072327795e-08
1.071938204e-08
1.070319919e-08
1.067130717e-08
1.061962998e-08
1.054335384e-08
1.043684919e-08
1.029360822e-08
1.01062142e-08
9.86636653e-09
9.564993024e-09
9.192487986e-09
8.739125766e-09
8.195703594e-09
7.554457029e-09
6.810274258e-09
5.962200048e-09
5.015163616e-09
3.981723649e-09
2.883332848e-09
1.03436743e-08
1.034427268e-08
1.034579563e-08
1.034829834e-08
1.035174164e-08
1.035615582e-08
1.036164039e-08
1.036831381e-08
1.037629356e-08
1.038570169e-08
1.039667014e-08
1.040933846e-08
1.042384828e-08
1.044031996e-08
1.045891752e-08
1.047975266e-08
1.050292531e-08
1.052851781e-08
1.055658909e-08
1.058715878e-08
1.062019241e-08
1.065559399e-08
1.069319489e-08
1.073273383e-08
1.077383383e-08
1.08159756e-08
1.085846557e-08
1.090039673e-08
1.094060111e-08
1.097759296e-08
1.100950119e-08
1.10339893e-08
1.104816133e-08
1.104845283e-08
1.103050719e-08
1.098903994e-08
1.091769621e-08
1.080890981e-08
1.065377972e-08
1.044199229e-08
1.016182986e-08
9.800323979e-09
9.343634328e-09
8.77776298e-09
8.089718937e-09
7.269229382e-09
6.310997213e-09
5.217417225e-09
4.00149735e-09
2.689757764e-09
1.034201524e-08
1.034291413e-08
1.034517202e-08
1.034885574e-08
1.035388842e-08
1.036028823e-08
1.036816743e-08
1.037766035e-08
1.038889686e-08
1.040201207e-08
1.041715532e-08
1.043448817e-08
1.045417863e-08
1.047639635e-08
1.050131163e-08
1.052910156e-08
1.055993652e-08
1.059394737e-08
1.063126291e-08
1.067199435e-08
1.071620338e-08
1.076390154e-08
1.081504047e-08
1.086949361e-08
1.092703433e-08
1.098730677e-08
1.104979179e-08
1.111376578e-08
1.117824968e-08
1.124194553e-08
1.130315812e-08
1.135969877e-08
1.14087683e-08
1.144681646e-08
1.146937414e-08
1.147085633e-08
1.144433716e-08
1.138130204e-08
1.127138835e-08
1.110213918e-08
1.085881605e-08
1.052434002e-08
1.0079469e-08
9.503395185e-09
8.775011169e-09
7.875235911e-09
6.790611685e-09
5.518381864e-09
4.071820558e-09
2.484774298e-09
1.033843532e-08
1.033961088e-08
1.034254666e-08
1.034731985e-08
1.035382022e-08
1.036205687e-08
1.037215595e-08
1.038426886e-08
1.039853977e-08
1.041511926e-08
1.043417682e-08
1.045589981e-08
1.048048798e-08
1.05081501e-08
1.053910232e-08
1.05735656e-08
1.061175466e-08
1.065390877e-08
1.070022883e-08
1.075094525e-08
1.080618346e-08
1.086609696e-08
1.093078999e-08
1.100029794e-08
1.107457639e-08
1.115347526e-08
1.123670464e-08
1.132379241e-08
1.141403202e-08
1.150641594e-08
1.159955073e-08
1.169154873e-08
1.177989158e-08
1.186126013e-08
1.193132322e-08
1.198447567e-08
1.201351868e-08
1.200927964e-08
1.19601722e-08
1.185170893e-08
1.166600356e-08
1.138133443e-08
1.097188195e-08
1.040783548e-08
9.656146194e-09
8.682718663e-09
7.456499808e-09
5.95909883e-09
4.196751531e-09
2.22020015e-09
1.033236395e-08
1.033378972e-08
1.033734107e-08
1.034310457e-08
1.035094062e-08
1.036085165e-08
1.037297819e-08
1.038748913e-08
1.040454401e-08
1.042431043e-08
1.044697993e-08
1.047276774e-08
1.050190755e-08
1.053464848e-08
1.057125419e-08
1.061200056e-08
1.065716958e-08
1.070703938e-08
1.076187395e-08
1.082227516e-08
1.088821189e-08
1.096003471e-08
1.103802631e-08
1.112241889e-08
1.121338626e-08
1.131102285e-08
1.141531754e-08
1.152611644e-08
1.164307263e-08
1.176557892e-08
1.189268233e-08
1.202297178e-08
1.215443037e-08
1.228424475e-08
1.240855844e-08
1.25221515e-08
1.261802754e-08
1.268688817e-08
1.271647509e-08
1.269076441e-08
1.258902266e-08
1.238477765e-08
1.20448582e-08
1.152871171e-08
1.078835077e-08
9.769424347e-09
8.412757486e-09
6.664669649e-09
4.482419772e-09
1.914457967e-09
1.032328076e-08
1.032492851e-08
1.032902803e-08
1.033567439e-08
1.034470253e-08
1.035611015e-08
1.037005198e-08
1.0386714e-08
1.040627143e-08
1.04289096e-08
1.045484288e-08
1.048431527e-08
1.051759517e-08
1.055497317e-08
1.059676237e-08
1.064329914e-08
1.06949445e-08
1.075208993e-08
1.081518256e-08
1.088433802e-08
1.096030106e-08
1.104345704e-08
1.113419057e-08
1.123294368e-08
1.134013295e-08
1.145614148e-08
1.158128207e-08
1.171577625e-08
1.18597159e-08
1.20129993e-08
1.217525427e-08
1.234573023e-08
1.252315183e-08
1.270552609e-08
1.288987943e-08
1.307190132e-08
1.324546313e-08
1.340196655e-08
1.352946541e-08
1.361148854e-08
1.36254908e-08
1.354086336e-08
1.331664228e-08
1.289902285e-08
1.222035836e-08
1.119889038e-08
9.744813767e-09
7.766693887e-09
5.149948594e-09
1.881953391e-09
1.031072208e-08
1.031256191e-08
1.031713714e-08
1.032455022e-08
1.033461457e-08
1.034732473e-08
1.036284872e-08
1.038138862e-08
1.040313489e-08
1.042829047e-08
1.045709233e-08
1.048981266e-08
1.052675376e-08
1.056824655e-08
1.061465205e-08
1.066636322e-08
1.072380608e-08
1.078743909e-08
1.085774835e-08
1.09352169e-08
1.102045822e-08
1.111403956e-08
1.121660715e-08
1.132882164e-08
1.145131603e-08
1.158479811e-08
1.172992228e-08
1.188734253e-08
1.205765874e-08
1.224136311e-08
1.243878591e-08
1.265000418e-08
1.287471308e-08
1.311205779e-08
1.336038267e-08
1.361687911e-08
1.387709556e-08
1.413423633e-08
1.437814994e-08
1.459386551e-08
1.475946319e-08
1.48429059e-08
1.479753858e-08
1.455519171e-08
1.401919599e-08
1.305158935e-08
1.149045384e-08
9.130579514e-09
5.853127416e-09
1.641053795e-09
1.029428641e-08
1.02962868e-08
1.030126014e-08
1.030931501e-08
1.032024725e-08
1.033404943e-08
1.035090151e-08
1.037102003e-08
1.039460965e-08
1.042188995e-08
1.045311915e-08
1.048859575e-08
1.052865359e-08
1.057366104e-08
1.062402368e-08
1.068018723e-08
1.074263982e-08
1.08119137e-08
1.088858718e-08
1.097328653e-08
1.106670614e-08
1.116959248e-08
1.128275129e-08
1.140701982e-08
1.154333888e-08
1.169283703e-08
1.185639677e-08
1.2035143e-08
1.223021222e-08
1.244275839e-08
1.267390975e-08
1.292469308e-08
1.319595471e-08
1.348824117e-08
1.38015948e-08
1.413526117e-08
1.448726862e-08
1.485380748e-08
1.522827485e-08
1.559982563e-08
1.595113759e-08
1.625478716e-08
1.646737679e-08
1.651869607e-08
1.629502217e-08
1.559671637e-08
1.41135274e-08
1.121127106e-08
6.382639156e-09
-1.492889626e-09
1.027363896e-08
1.027576675e-08
1.028105558e-08
1.028961883e-08
1.030123867e-08
1.031590675e-08
1.033381314e-08
1.035518672e-08
1.038024465e-08
1.040922138e-08
1.044239393e-08
1.04800839e-08
1.052265281e-08
1.057050199e-08
1.062407643e-08
1.068386909e-08
1.075042484e-08
1.082434456e-08
1.090629026e-08
1.099699138e-08
1.109725408e-08
1.120796572e-08
1.133010341e-08
1.146474224e-08
1.161308082e-08
1.177626281e-08
1.195587846e-08
1.215342867e-08
1.23705483e-08
1.260904327e-08
1.28708575e-08
1.315799761e-08
1.347256904e-08
1.381668234e-08
1.419229652e-08
1.46010789e-08
1.504411506e-08
1.552146755e-08
1.60314788e-08
1.656969203e-08
1.712715353e-08
1.768763126e-08
1.822300802e-08
1.868470893e-08
1.898858529e-08
1.897366003e-08
1.834116171e-08
1.628460814e-08
1.152983111e-08
-2.754646467e-09
1.024851542e-08
1.025073571e-08
1.025625279e-08
1.026518328e-08
1.027729983e-08
1.029259397e-08
1.031126373e-08
1.03335477e-08
1.035967328e-08
1.03898871e-08
1.04244815e-08
1.046379679e-08
1.050821686e-08
1.055816986e-08
1.061413309e-08
1.067663855e-08
1.07462783e-08
1.082371056e-08
1.090966685e-08
1.100496055e-08
1.111049688e-08
1.122728331e-08
1.135644138e-08
1.149921892e-08
1.165700735e-08
1.183134109e-08
1.202396927e-08
1.22368285e-08
1.247211178e-08
1.273226796e-08
1.301994303e-08
1.333809389e-08
1.369003374e-08