/*--------------------------------*- C++ -*----------------------------------*\
| =========                 |                                                 |
| \\      /  F ield         | foam-extend: Open Source CFD                    |
|  \\    /   O peration     | Version:     4.1                                |
|   \\  /    A nd           | Web:         http://www.foam-extend.org         |
|    \\/     M anipulation  |                                                 |
\*---------------------------------------------------------------------------*/
FoamFile
{
    version     2.0;
    format      ascii;
    class       surfaceScalarField;
    location    "120000";
    object      phi;
}
// * * * * * * * * * * * * * * * * * * * * * * * * * * * * * * * * * * * * * //

dimensions      [0 3 -1 0 0 0 0];

internalField   nonuniform List<scalar> 
31542
(
1.062482871e-07
3.081712936e-09
1.00600467e-07
5.647820046e-09
9.407171583e-08
6.528751188e-09
8.725431655e-08
6.817399311e-09
8.043001009e-08
6.824306539e-09
7.385883654e-08
6.571173649e-09
6.7715738e-08
6.143098641e-09
6.209677919e-08
5.618958862e-09
5.704846192e-08
5.048317238e-09
5.25821917e-08
4.466270099e-09
4.868448374e-08
3.897707747e-09
4.532339595e-08
3.361087516e-09
4.24547036e-08
2.868692002e-09
4.002778568e-08
2.426917528e-09
3.799002216e-08
2.037763092e-09
3.628977849e-08
1.700243225e-09
3.487837969e-08
1.411398372e-09
3.37113267e-08
1.167052647e-09
3.274891888e-08
9.62407577e-10
3.195644179e-08
7.924769548e-10
3.130406027e-08
6.523814545e-10
3.076652152e-08
5.375386745e-10
3.032274397e-08
4.437773665e-10
2.995534798e-08
3.673956672e-10
2.965014297e-08
3.052045377e-10
2.939564301e-08
2.544994397e-10
2.91826213e-08
2.130212363e-10
2.900370477e-08
1.789161756e-10
2.885301425e-08
1.50690321e-10
2.872585309e-08
1.271610397e-10
2.86184429e-08
1.074100294e-10
2.852770101e-08
9.074158549e-11
2.845105004e-08
7.665047307e-11
2.838633953e-08
6.470985973e-11
2.833172974e-08
5.460909532e-11
2.828553242e-08
4.619668853e-11
2.824616429e-08
3.936763188e-11
2.821210453e-08
3.405940384e-11
2.818186563e-08
3.023861742e-11
2.815398133e-08
2.78840354e-11
2.812702048e-08
2.696056265e-11
2.809959269e-08
2.742749401e-11
2.807019545e-08
2.939696923e-11
2.803733e-08
3.286523614e-11
2.799952665e-08
3.780316691e-11
2.795534266e-08
4.418379193e-11
2.790336697e-08
5.197542363e-11
2.784222713e-08
6.113949275e-11
2.777060005e-08
7.162671682e-11
8.337435842e-11
2.768722541e-08
1.113834728e-07
1.02824002e-09
1.139930985e-07
3.038194369e-09
1.160758406e-07
4.446009216e-09
1.174401828e-07
5.453057406e-09
1.180432914e-07
6.221198288e-09
1.178792463e-07
6.73521923e-09
1.170408316e-07
6.981513704e-09
1.156560236e-07
7.00376725e-09
1.138515298e-07
6.852811294e-09
1.117460725e-07
6.571727523e-09
1.094456621e-07
6.198118318e-09
1.070403905e-07
5.766359292e-09
1.046032131e-07
5.305869564e-09
1.021911142e-07
4.839016618e-09
9.984662534e-08
4.382252174e-09
9.759987736e-08
3.946991533e-09
9.547074538e-08
3.540530831e-09
9.347092378e-08
3.166874924e-09
9.160582563e-08
2.827506589e-09
8.987621684e-08
2.522086707e-09
8.827955216e-08
2.249047097e-09
8.681102712e-08
2.006064554e-09
8.546439289e-08
1.790412252e-09
8.423262391e-08
1.599165139e-09
8.310829154e-08
1.429537352e-09
8.208387451e-08
1.278916995e-09
8.115196934e-08
1.144927126e-09
8.030542384e-08
1.025462565e-09
7.95374174e-08
9.186977034e-10
7.884150093e-08
8.230783529e-10
7.821160812e-08
7.373034236e-10
7.764205017e-08
6.602998224e-10
7.712750861e-08
5.911920788e-10
7.666295123e-08
5.292672134e-10
7.624359511e-08
4.739652743e-10
7.586492975e-08
4.248622887e-10
7.552266687e-08
3.816309389e-10
7.521270901e-08
3.440177923e-10
7.493112112e-08
3.118270581e-10
7.467409925e-08
2.849064591e-10
7.443792209e-08
2.631382952e-10
7.421891257e-08
2.46437652e-10
7.401355951e-08
2.347507512e-10
7.38184205e-08
2.280049993e-10
7.363010463e-08
2.261197351e-10
7.34452749e-08
2.290140882e-10
7.326065178e-08
2.365989676e-10
7.307301928e-08
2.48772407e-10
7.287923161e-08
2.654149305e-10
2.86385085e-10
7.267622168e-08
1.096474196e-07
7.108204364e-10
1.107345818e-07
1.951032334e-09
1.121969058e-07
2.983685406e-09
1.138548806e-07
3.795082853e-09
1.156185967e-07
4.457482434e-09
1.173588591e-07
4.994956946e-09
1.189486195e-07
5.391753474e-09
1.203056816e-07
5.646705156e-09
1.213840495e-07
5.774443188e-09
1.221643186e-07
5.791458291e-09
1.226486978e-07
5.713738817e-09
1.22856353e-07
5.558703683e-09
1.228175544e-07
5.344667712e-09
1.225676833e-07
5.088887242e-09
1.22143424e-07
4.806511003e-09
1.215802e-07
4.510215108e-09
1.209106136e-07
4.210116887e-09
1.201635881e-07
3.913900267e-09
1.193640439e-07
3.627050665e-09
1.185329387e-07
3.353191798e-09
1.176875284e-07
3.094457294e-09
1.168417492e-07
2.851843547e-09
1.160066429e-07
2.625518245e-09
1.151907258e-07
2.415081827e-09
1.144004604e-07
2.219802403e-09
1.136406147e-07
2.038762418e-09
1.129145733e-07
1.870968325e-09
1.122246023e-07
1.71543351e-09
1.11572066e-07
1.57123376e-09
1.10957604e-07
1.437540093e-09
1.10381272e-07
1.313634916e-09
1.098426548e-07
1.19891635e-09
1.093409518e-07
1.092894465e-09
1.088750361e-07
9.95182237e-10
1.084435146e-07
9.054862925e-10
1.080447792e-07
8.235971778e-10
1.076770346e-07
7.493752783e-10
1.073383168e-07
6.827352428e-10
1.070265103e-07
6.236332605e-10
1.067393598e-07
5.72056683e-10
1.06474484e-07
5.280137947e-10
1.062293927e-07
4.915288573e-10
1.060015076e-07
4.626357002e-10
1.057881543e-07
4.413581513e-10
1.055865652e-07
4.277085451e-10
1.053938953e-07
4.216836899e-10
1.052072397e-07
4.232541283e-10
1.050236441e-07
4.323677377e-10
1.048401144e-07
4.489443657e-10
4.728696358e-10
1.046536298e-07
1.095657532e-07
4.750673214e-10
1.10092086e-07
1.42469997e-09
1.108111007e-07
2.264671111e-09
1.116501817e-07
2.956002336e-09
1.125971747e-07
3.51048989e-09
1.136425984e-07
3.94953356e-09
1.147540262e-07
4.280325985e-09
1.158922551e-07
4.508476462e-09
1.170208295e-07
4.645868937e-09
1.181063863e-07
4.705901636e-09
1.191199565e-07
4.700168685e-09
1.200394514e-07
4.639208832e-09
1.208507278e-07
4.533391311e-09
1.215469396e-07
4.39267539e-09
1.221273937e-07
4.226056855e-09
1.225962382e-07
4.041370692e-09
1.229610877e-07
3.845267531e-09
1.232317603e-07
3.643227896e-09
1.234192106e-07
3.439600622e-09
1.235347102e-07
3.237692504e-09
1.235892659e-07
3.039901939e-09
1.235932384e-07
2.847871293e-09
1.235561172e-07
2.6626396e-09
1.234864142e-07
2.484785178e-09
1.233916616e-07
2.314555284e-09
1.232784484e-07
2.151975934e-09
1.231524803e-07
1.9969367e-09
1.230186571e-07
1.849257e-09
1.228811547e-07
1.708736246e-09
1.227435054e-07
1.575189311e-09
1.226086709e-07
1.4484693e-09
1.224791061e-07
1.328480954e-09
1.223568144e-07
1.215186072e-09
1.222433932e-07
1.108603385e-09
1.221400733e-07
1.008806176e-09
1.220477527e-07
9.159177416e-10
1.219670237e-07
8.301042928e-10
1.218981933e-07
7.515657144e-10
1.218413013e-07
6.805254651e-10
1.217961344e-07
6.172237639e-10
1.217622433e-07
5.619052498e-10
1.217389525e-07
5.14819926e-10
1.217253736e-07
4.7621484e-10
1.217204203e-07
4.463116553e-10
1.217228128e-07
4.253160212e-10
1.217310924e-07
4.134041829e-10
1.217436305e-07
4.107160199e-10
1.217586451e-07
4.173532541e-10
1.217742132e-07
4.333764914e-10
4.587987252e-10
1.217882842e-07
1.094411622e-07
3.639052874e-10
1.097660386e-07
1.099824043e-09
1.102548269e-07
1.775883163e-09
1.108541298e-07
2.356699851e-09
1.115268e-07
2.837819902e-09
1.122497143e-07
3.226619534e-09
1.130019926e-07
3.528047746e-09
1.137649995e-07
3.74546965e-09
1.145251677e-07
3.885700713e-09
1.152725479e-07
3.958521378e-09
1.15998693e-07
3.974023451e-09
1.166962523e-07
3.94164939e-09
1.17359323e-07
3.870320453e-09
1.179836349e-07
3.76836332e-09
1.185664892e-07
3.643202421e-09
1.191066564e-07
3.501203452e-09
1.19604232e-07
3.34769189e-09
1.200604338e-07
3.187026043e-09
1.204773581e-07
3.022676272e-09
1.208577331e-07
2.857317558e-09
1.21204695e-07
2.692939993e-09
1.215215995e-07
2.530966863e-09
1.218118702e-07
2.372369021e-09
1.22078886e-07
2.217769595e-09
1.223259034e-07
2.067538017e-09
1.22556008e-07
1.921871371e-09
1.227720851e-07
1.780859472e-09
1.229768059e-07
1.644535917e-09
1.231726252e-07
1.512916565e-09
1.233617849e-07
1.3860292e-09
1.235463206e-07
1.263933272e-09
1.237280692e-07
1.146732135e-09
1.239086758e-07
1.034579247e-09
1.240895993e-07
9.276796847e-10
1.24272116e-07
8.262893263e-10
1.244573235e-07
7.307100371e-10
1.246461443e-07
6.412832949e-10
1.248393252e-07
5.583846956e-10
1.250374386e-07
4.824121246e-10
1.252408838e-07
4.137787132e-10
1.254498864e-07
3.529028429e-10
1.256644572e-07
3.002491874e-10
1.258844839e-07
2.561880745e-10
1.261096582e-07
2.211372393e-10
1.263394942e-07
1.95480034e-10
1.265733429e-07
1.79555361e-10
1.268103951e-07
1.736639042e-10
1.270496845e-07
1.780637856e-10
1.272900973e-07
1.929636909e-10
2.185175123e-10
1.275303784e-07
1.094057721e-07
2.881334622e-10
1.096380064e-07
8.675902982e-10
1.100015272e-07
1.41236273e-09
1.104607939e-07
1.897433542e-09
1.109858872e-07
2.312726869e-09
1.115547443e-07
2.657762662e-09
1.121488219e-07
2.933970244e-09
1.127513916e-07
3.142900017e-09
1.133490089e-07
3.288083441e-09
1.139320724e-07
3.375457907e-09
1.144940293e-07
3.412066606e-09
1.150306343e-07
3.405044337e-09
1.155395882e-07
3.361366593e-09
1.160202044e-07
3.287747181e-09
1.164729922e-07
3.190414658e-09
1.168992854e-07
3.074910433e-09
1.173009696e-07
2.946007828e-09
1.176802806e-07
2.807715182e-09
1.180396432e-07
2.663313699e-09
1.183815451e-07
2.515415766e-09
1.187084426e-07
2.366042672e-09
1.190226955e-07
2.216714219e-09
1.193265245e-07
2.068540326e-09
1.196219865e-07
1.922307959e-09
1.199109643e-07
1.778560345e-09
1.201951691e-07
1.63766658e-09
1.204761482e-07
1.499880063e-09
1.207552978e-07
1.365385966e-09
1.21033875e-07
1.234338896e-09
1.213130118e-07
1.106892014e-09
1.215937269e-07
9.832179565e-10
1.218769356e-07
8.635233745e-10
1.221634567e-07
7.480581257e-10
1.224540176e-07
6.37118621e-10
1.227492556e-07
5.310512032e-10
1.230497188e-07
4.302467698e-10
1.233558643e-07
3.351378129e-10
1.236680523e-07
2.461969495e-10
1.239865431e-07
1.639216203e-10
1.243114894e-07
8.88326321e-11
1.246430234e-07
2.136909815e-11
1.24980883e-07
-3.761032402e-11
1.253249728e-07
-8.790168657e-11
1.256750041e-07
-1.288939761e-10
1.260305962e-07
-1.601118406e-10
1.263912512e-07
-1.810994107e-10
1.267563512e-07
-1.914359153e-10
1.271251668e-07
-1.907517587e-10
1.274968635e-07
-1.787330552e-10
-1.551246945e-10
1.278705055e-07
1.093869301e-07
2.312036812e-10
1.095578644e-07
6.96656335e-10
1.098298246e-07
1.140402772e-09
1.101824604e-07
1.544797862e-09
1.10595758e-07
1.899429438e-09
1.110528703e-07
2.200650342e-09
1.115389913e-07
2.447849264e-09
1.120403627e-07
2.641528591e-09
1.125449028e-07
2.783543267e-09
1.130429685e-07
2.877392251e-09
1.135273512e-07
2.927683796e-09
1.139929451e-07
2.939450451e-09
1.144365004e-07
2.917811396e-09
1.148564162e-07
2.867831495e-09
1.15252466e-07
2.79436507e-09
1.156254861e-07
2.701890531e-09
1.159770889e-07
2.594405248e-09
1.16309417e-07
2.475387136e-09
1.16624936e-07
2.347794747e-09
1.16926263e-07
2.214088907e-09
1.172160338e-07
2.076272007e-09
1.174968071e-07
1.935941117e-09
1.177709993e-07
1.794348415e-09
1.180408445e-07
1.65246299e-09
1.183083745e-07
1.511030258e-09
1.185754141e-07
1.370626734e-09
1.188435851e-07
1.231708603e-09
1.191143173e-07
1.09465318e-09
1.193888621e-07
9.597935925e-10
1.196683075e-07
8.274462776e-10
1.199535937e-07
6.979316147e-10
1.202455267e-07
5.715902052e-10
1.205447901e-07
4.487946273e-10
1.208519539e-07
3.299547635e-10
1.211674705e-07
2.155344728e-10
1.214917104e-07
1.060069236e-10
1.218249504e-07
1.89806043e-12
1.22167346e-07
-9.619840271e-11
1.225189652e-07
-1.876973069e-10
1.228797665e-07
-2.719683521e-10
1.232495196e-07
-3.483839124e-10
1.23628169e-07
-4.162596456e-10
1.240152737e-07
-4.750062786e-10
1.244103634e-07
-5.239835549e-10
1.248128384e-07
-5.625864825e-10
1.252219969e-07
-5.902576276e-10
1.256370449e-07
-6.064836857e-10
1.260570962e-07
-6.108030538e-10
1.264811788e-07
-6.028157953e-10
-5.821908827e-10
1.269082448e-07
1.093731242e-07
1.88079688e-10
1.095028581e-07
5.66922648e-10
1.097121277e-07
9.311331828e-10
1.099889057e-07
1.268019921e-09
1.103194707e-07
1.56886435e-09
1.106908389e-07
1.829282106e-09
1.110911928e-07
2.047495332e-09
1.115096765e-07
2.223044877e-09
1.119366073e-07
2.356612428e-09
1.123638828e-07
2.450116651e-09
1.127850986e-07
2.506468022e-09
1.131954144e-07
2.52913484e-09
1.135913994e-07
2.521826601e-09
1.139709085e-07
2.488322725e-09
1.143329329e-07
2.432340963e-09
1.146774141e-07
2.357409679e-09
1.150050489e-07
2.266770701e-09
1.153171093e-07
2.163326871e-09
1.156152808e-07
2.049623323e-09
1.159015204e-07
1.927849471e-09
1.161779364e-07
1.79985623e-09
1.16446692e-07
1.667185667e-09
1.167099316e-07
1.531109068e-09
1.169697256e-07
1.392669002e-09
1.172280337e-07
1.252722042e-09
1.174866802e-07
1.111979915e-09
1.177473408e-07
9.710475278e-10
1.180115373e-07
8.304562003e-10
1.182806361e-07
6.906943854e-10
1.185558513e-07
5.522308334e-10
1.188382514e-07
4.155313837e-10
1.191287624e-07
2.810791805e-10
1.19428174e-07
1.493830359e-10
1.197371909e-07
2.093790609e-11
1.200563053e-07
-1.035797176e-10
1.203859528e-07
-2.236402715e-10
1.207263948e-07
-3.385435925e-10
1.210777959e-07
-4.475991323e-10
1.214401894e-07
-5.500905425e-10
1.218134905e-07
-6.452693433e-10
1.221974828e-07
-7.32376138e-10
1.22591865e-07
-8.106418262e-10
1.229961594e-07
-8.79300394e-10
1.23409789e-07
-9.376129073e-10
1.238320637e-07
-9.84860825e-10
1.242621729e-07
-1.020366579e-09
1.246991959e-07
-1.043506614e-09
1.251421124e-07
-1.053719662e-09
1.255898129e-07
-1.050516453e-09
-1.033488679e-09
1.260411106e-07
1.09363792e-07
1.542877745e-10
1.094655609e-07
4.651536939e-10
1.096309094e-07
7.657845169e-10
1.09852075e-07
1.046854169e-09
1.101195414e-07
1.301397743e-09
1.10423652e-07
1.525171358e-09
1.107553011e-07
1.715846206e-09
1.111060369e-07
1.872309007e-09
1.114681854e-07
1.99446382e-09
1.118350909e-07
2.083211133e-09
1.122012699e-07
2.14028912e-09
1.12562408e-07
2.167996904e-09
1.129152857e-07
2.168949197e-09
1.132576946e-07
2.14591426e-09
1.135883395e-07
2.101696478e-09
1.139067168e-07
2.039032721e-09
1.142129803e-07
1.960507416e-09
1.145078106e-07
1.868496716e-09
1.147922943e-07
1.765139637e-09
1.150678155e-07
1.652328345e-09
1.153359596e-07
1.531712241e-09
1.155984324e-07
1.404712989e-09
1.158569939e-07
1.272547692e-09
1.161134057e-07
1.136257074e-09
1.163693917e-07
9.967358959e-10
1.166266076e-07
8.547636795e-10
1.168866201e-07
7.110347065e-10
1.171508935e-07
5.661825834e-10
1.174207781e-07
4.208095222e-10
1.176975055e-07
2.755033887e-10
1.179821884e-07
1.308484681e-10
1.182758241e-07
-1.255650357e-11
1.18579267e-07
-1.540596916e-10
1.188932145e-07
-2.930093379e-10
1.192183107e-07
-4.286754924e-10
1.19554999e-07
-5.603281895e-10
1.19903629e-07
-6.871731615e-10
1.202644092e-07
-8.08379079e-10
1.206374036e-07
-9.230849057e-10
1.210225374e-07
-1.030403164e-09
1.214195911e-07
-1.129429798e-09
1.218282018e-07
-1.219252469e-09
1.222478646e-07
-1.29896301e-09
1.226779293e-07
-1.367677464e-09
1.231176097e-07
-1.424541071e-09
1.235659877e-07
-1.468744515e-09
1.24022021e-07
-1.499540003e-09
1.24484554e-07
-1.516252909e-09
1.249523302e-07
-1.518293005e-09
-1.505165045e-09
1.254240064e-07
1.093571155e-07
1.271721894e-10
1.094386669e-07
3.836020083e-10
1.095716981e-07
6.327530185e-10
1.097509817e-07
8.675703858e-10
1.099698933e-07
1.082485965e-09
1.102213669e-07
1.273697665e-09
1.104984522e-07
1.438760836e-09
1.107945343e-07
1.576226814e-09
1.111034866e-07
1.685511541e-09
1.114198565e-07
1.766841261e-09
1.117390126e-07
1.821133204e-09
1.120571945e-07
1.849815187e-09
1.123714937e-07
1.854650364e-09
1.126798052e-07
1.837603172e-09
1.129807647e-07
1.800737314e-09
1.132736684e-07
1.746129335e-09
1.135583796e-07
1.675796327e-09
1.138352333e-07
1.591643101e-09
1.141049434e-07
1.495429513e-09
1.143685178e-07
1.388754016e-09
1.146271806e-07
1.273049403e-09
1.148823055e-07
1.149588157e-09
1.151353578e-07
1.019495384e-09
1.153878479e-07
8.837669796e-10
1.156412929e-07
7.432907905e-10
1.158971869e-07
5.988695609e-10
1.161569792e-07
4.512422954e-10
1.164220561e-07
3.011056695e-10
1.166937027e-07
1.49162935e-10
1.16973158e-07
-3.951874639e-12
1.172615247e-07
-1.575180885e-10
1.175598079e-07
-3.108394263e-10
1.17868908e-07
-4.631594392e-10
1.181895961e-07
-6.13696922e-10
1.185225373e-07
-7.616161295e-10
1.188682455e-07
-9.060359611e-10
1.192271024e-07
-1.04602986e-09
1.195993472e-07
-1.180623783e-09
1.199850675e-07
-1.308805321e-09
1.203841953e-07
-1.429531099e-09
1.207965014e-07
-1.541736022e-09
1.212215941e-07
-1.644345195e-09
1.216589194e-07
-1.736288288e-09
1.221077582e-07
-1.816516372e-09
1.225672335e-07
-1.88401661e-09
1.230363173e-07
-1.93782856e-09
1.235138386e-07
-1.977061516e-09
1.239984956e-07
-2.000910107e-09
1.244888706e-07
-2.0086684e-09
-1.999742537e-09
1.249834477e-07
1.093521137e-07
1.050583002e-10
1.094185595e-07
3.171558817e-10
1.095272646e-07
5.240475601e-10
1.096745859e-07
7.202489007e-10
1.098558061e-07
9.012657029e-10
1.100657079e-07
1.063795842e-09
1.102989798e-07
1.205488888e-09
1.105504491e-07
1.324757616e-09
1.108152446e-07
1.420716027e-09
1.110889498e-07
1.49313614e-09
1.113677224e-07
1.542360758e-09
1.11648358e-07
1.569179812e-09
1.119283022e-07
1.574706431e-09
1.122056328e-07
1.560272838e-09
1.124790245e-07
1.527345872e-09
1.127476986e-07
1.477455422e-09
1.130113609e-07
1.41213408e-09
1.132701336e-07
1.332870371e-09
1.135244865e-07
1.241076612e-09
1.137751708e-07
1.138069684e-09
1.14023158e-07
1.025062166e-09
1.142695844e-07
9.031617228e-10
1.145157024e-07
7.733774234e-10
1.147628382e-07
6.366312041e-10
1.150123574e-07
4.937716248e-10
1.152656296e-07
3.45597493e-10
1.155240077e-07
1.928644084e-10
1.157888866e-07
3.622696959e-11
1.160614367e-07
-1.233870126e-10
1.163429107e-07
-2.854256466e-10
1.166344334e-07
-4.49040534e-10
1.169370383e-07
-6.134439001e-10
1.172516671e-07
-7.777876791e-10
1.175791416e-07
-9.411709313e-10
1.179201644e-07
-1.102638409e-09
1.182753059e-07
-1.261177248e-09
1.186449937e-07
-1.415717678e-09
1.190295037e-07
-1.565133901e-09
1.19428949e-07
-1.708250902e-09
1.198432714e-07
-1.843853695e-09
1.20272234e-07
-1.970698789e-09
1.207154169e-07
-2.087528296e-09
1.211722146e-07
-2.193086353e-09
1.216418355e-07
-2.286137636e-09
1.22123305e-07
-2.365486651e-09
1.226154735e-07
-2.429997551e-09
1.231170263e-07
-2.478614534e-09
1.236264973e-07
-2.510381306e-09
1.241422875e-07
-2.524458761e-09
-2.520140546e-09
1.246626852e-07
1.093482802e-07
8.677789434e-11
1.094031625e-07
2.622733015e-10
1.094931352e-07
4.340745988e-10
1.096155693e-07
5.97814767e-10
1.09767023e-07
7.498120711e-10
1.099436045e-07
8.872143663e-10
1.101412555e-07
1.007838054e-09
1.10355945e-07
1.110068234e-09
1.105838169e-07
1.192844227e-09
1.108213151e-07
1.255638058e-09
1.11065284e-07
1.298391928e-09
1.113130332e-07
1.321430848e-09
1.115623655e-07
1.325374238e-09
1.118115802e-07
1.31105828e-09
1.120594569e-07
1.279469334e-09
1.123052262e-07
1.231686104e-09
1.125485302e-07
1.168830116e-09
1.127893747e-07
1.092025874e-09
1.130280796e-07
1.002371626e-09
1.132652291e-07
9.009201217e-10
1.135016234e-07
7.886678585e-10
1.137382341e-07
6.665509956e-10
1.139761634e-07
5.354481356e-10
1.142166087e-07
3.961860866e-10
1.144608355e-07
2.495450272e-10
1.147101281e-07
9.63052735e-11
1.14965802e-07
-6.28092341e-11
1.152290846e-07
-2.270553192e-10
1.155013402e-07
-3.956423783e-10
1.157837303e-07
-5.678154844e-10
1.160774266e-07
-7.427364018e-10
1.163835051e-07
-9.19521993e-10
1.167029542e-07
-1.097236215e-09
1.170366605e-07
-1.274876819e-09
1.173853929e-07
-1.451370597e-09
1.177497871e-07
-1.625571515e-09
1.181303304e-07
-1.796261202e-09
1.185273481e-07
-1.962151886e-09
1.189409901e-07
-2.121893144e-09
1.193712183e-07
-2.274082138e-09
1.198177962e-07
-2.417276942e-09
1.202802805e-07
-2.550012987e-09
1.207580161e-07
-2.670822444e-09
1.21250134e-07
-2.778256128e-09
1.21755554e-07
-2.870907093e-09
1.222729912e-07
-2.947435196e-09
1.228009685e-07
-3.00659207e-09
1.233378324e-07
-3.047245374e-09
1.238817748e-07
-3.068401172e-09
-3.06922355e-09
1.244308579e-07
1.093452755e-07
7.150223736e-11
1.093910961e-07
2.16452596e-10
1.094663218e-07
3.588488655e-10
1.095690026e-07
4.951340933e-10
1.096965777e-07
6.222370795e-10
1.098461132e-07
7.37679081e-10
1.100144957e-07
8.394556913e-10
1.101985818e-07
9.259823217e-10
1.103953201e-07
9.961060279e-10
1.106018564e-07
1.049101903e-09
1.108156183e-07
1.08463011e-09
1.110343756e-07
1.102673676e-09
1.112562744e-07
1.103475508e-09
1.114798509e-07
1.087481864e-09
1.117040284e-07
1.055291777e-09
1.11928103e-07
1.007611534e-09
1.121517184e-07
9.45214748e-10
1.123748349e-07
8.689093373e-10
1.125976943e-07
7.795122651e-10
1.128207826e-07
6.778318788e-10
1.130447928e-07
5.646576055e-10
1.132705906e-07
4.40753261e-10
1.13499177e-07
3.068618412e-10
1.137316561e-07
1.637070869e-10
1.139692912e-07
1.191023325e-11
1.142132087e-07
-1.476119209e-10
1.14464753e-07
-3.143532572e-10
1.147251962e-07
-4.874982489e-10
1.149958377e-07
-6.662837258e-10
1.152779141e-07
-8.498916112e-10
1.15572631e-07
-1.037452941e-09
1.158811356e-07
-1.22802626e-09
1.162044941e-07
-1.420594445e-09
1.165436755e-07
-1.614058073e-09
1.168995337e-07
-1.807228787e-09
1.172727884e-07
-1.998826531e-09
1.176640068e-07
-2.187479927e-09
1.180735843e-07
-2.371729655e-09
1.185017266e-07
-2.55003557e-09
1.189484323e-07
-2.720787946e-09
1.194134778e-07
-2.882322744e-09
1.198964052e-07
-3.032940879e-09
1.203965135e-07
-3.170931248e-09
1.20912854e-07
-3.294597049e-09
1.214442313e-07
-3.402284619e-09
1.219892099e-07
-3.492413883e-09
1.225461272e-07
-3.563509479e-09
1.231131132e-07
-3.61423136e-09
1.236881157e-07
-3.643403381e-09
-3.6500384e-09
1.242689309e-07
1.093428705e-07
5.863168575e-11
1.093814412e-07
1.778819941e-10
1.094448277e-07
2.954624921e-10
1.0953155e-07
4.084119941e-10
1.096396683e-07
5.141190074e-10
1.097669433e-07
6.104042688e-10
1.099109709e-07
6.954282833e-10
1.100692931e-07
7.676602771e-10
1.102394963e-07
8.259029966e-10
1.104192972e-07
8.693010739e-10
1.10606614e-07
8.973134125e-10
1.107996192e-07
9.096685571e-10
1.109967746e-07
9.063201298e-10
1.111968503e-07
8.874062664e-10
1.113989298e-07
8.532122755e-10
1.116024057e-07
8.041357406e-10
1.118069655e-07
7.406550234e-10
1.120125725e-07
6.633025775e-10
1.122194409e-07
5.726439373e-10
1.124280108e-07
4.692621119e-10
1.126389205e-07
3.537478997e-10
1.1285298e-07
2.266938728e-10
1.130711314e-07
8.871046705e-11
1.132944542e-07
-5.961559416e-11
1.135240401e-07
-2.176755857e-10
1.13761231e-07
-3.848025895e-10
1.140072436e-07
-5.603658159e-10
1.142633968e-07
-7.436513453e-10
1.145310095e-07
-9.338963149e-10
1.148113932e-07
-1.130275174e-09
1.151058294e-07
-1.331888992e-09
1.15415553e-07
-1.537749756e-09
1.157417311e-07
-1.746772558e-09
1.160854415e-07
-1.957768652e-09
1.16447651e-07
-2.169438591e-09
1.168291925e-07
-2.380368298e-09
1.172307409e-07
-2.589028514e-09
1.17652789e-07
-2.793777882e-09
1.180956238e-07
-2.992870351e-09
1.185593033e-07
-3.184467417e-09
1.190436358e-07
-3.366655387e-09
1.195481624e-07
-3.537467749e-09
1.200721435e-07
-3.694912451e-09
1.206145499e-07
-3.837003642e-09
1.211740624e-07
-3.961797046e-09
1.217490765e-07
-4.067427884e-09
1.223377173e-07
-4.152150108e-09
1.229378617e-07
-4.214375416e-09
1.23547169e-07
-4.252710154e-09
-4.265987909e-09
1.241631191e-07
1.093409082e-07
4.772352684e-11
1.09373566e-07
1.452244216e-10
1.094272691e-07
2.417595724e-10
1.095008704e-07
3.348109538e-10
1.095928755e-07
4.221141088e-10
1.097015548e-07
5.017250926e-10
1.098250385e-07
5.719447398e-10
1.099613985e-07
6.313003082e-10
1.101087257e-07
6.785759769e-10
1.102651986e-07
7.128283534e-10
1.104291423e-07
7.333697736e-10
1.105990746e-07
7.39736371e-10
1.107737386e-07
7.316563017e-10
1.109521236e-07
7.090213807e-10
1.111334758e-07
6.718602093e-10
1.113172997e-07
6.203121568e-10
1.115033519e-07
5.546030983e-10
1.116916303e-07
4.750244725e-10
1.11882358e-07
3.819165403e-10
1.120759634e-07
2.756569132e-10
1.122730608e-07
1.566504926e-10
1.124744879e-07
2.526679857e-11
1.126810878e-07
-1.178894843e-10
1.128939627e-07
-2.724905101e-10
1.131142556e-07
-4.379685609e-10
1.133432333e-07
-6.137803976e-10
1.135821969e-07
-7.993295014e-10
1.138325033e-07
-9.939578851e-10
1.140955399e-07
-1.196933008e-09
1.143727041e-07
-1.407439366e-09
1.146653806e-07
-1.624565584e-09
1.149749224e-07
-1.847291601e-09
1.153026275e-07
-2.074477974e-09
1.156497152e-07
-2.304856676e-09
1.160172992e-07
-2.537022987e-09
1.164063606e-07
-2.769429832e-09
1.168177178e-07
-3.000385613e-09
1.172519963e-07
-3.228056266e-09
1.177095985e-07
-3.45047235e-09
1.181906731e-07
-3.665541912e-09
1.186950875e-07
-3.871069625e-09
1.192224024e-07
-4.064782452e-09
1.197718519e-07
-4.244361757e-09
1.2034233e-07
-4.407481499e-09
1.209323849e-07
-4.551851726e-09
1.215402234e-07
-4.675266121e-09
1.221637257e-07
-4.775651889e-09
1.228004707e-07
-4.85111992e-09
1.234477738e-07
-4.900012794e-09
-4.920947713e-09
1.241027341e-07
1.093392773e-07
3.844631906e-11
1.093670226e-07
1.174793503e-10
1.094126611e-07
1.961212952e-10
1.094752857e-07
2.72186423e-10
1.095537273e-07
3.436725471e-10
1.096466344e-07
4.088179866e-10
1.097525417e-07
4.660375049e-10
1.098699309e-07
5.139111442e-10
1.099972904e-07
5.512166305e-10
1.101331703e-07
5.769486712e-10
1.102762307e-07
5.903095576e-10
1.10425281e-07
5.906862348e-10
1.105793099e-07
5.776276893e-10
1.107375061e-07
5.50825456e-10
1.108992716e-07
5.100950581e-10
1.110642271e-07
4.553571053e-10
1.112322117e-07
3.866190382e-10
1.114032776e-07
3.039589591e-10
1.115776819e-07
2.075126374e-10
1.117558762e-07
9.746282576e-11
1.119384932e-07
-2.596644992e-11
1.12126268e-07
-1.625080828e-10
1.12320222e-07
-3.118435911e-10
1.12521383e-07
-4.736517741e-10
1.127309456e-07
-6.475313483e-10
1.129501938e-07
-8.330288963e-10
1.131804944e-07
-1.0296304e-09
1.13423281e-07
-1.236744695e-09
1.13680036e-07
-1.453688172e-09
1.139522701e-07
-1.679673653e-09
1.142415016e-07
-1.91379724e-09
1.145492342e-07
-2.15502449e-09
1.148769329e-07
-2.4021771e-09
1.152259965e-07
-2.653920658e-09
1.155977272e-07
-2.908753842e-09
1.159932975e-07
-3.165000057e-09
1.164137148e-07
-3.420802654e-09
1.168597837e-07
-3.674124851e-09
1.173320672e-07
-3.922755507e-09
1.178308475e-07
-4.164321868e-09
1.183560884e-07
-4.396310131e-09
1.189074009e-07
-4.616094358e-09
1.194840136e-07
-4.820973908e-09
1.200847517e-07
-5.008219217e-09
1.207080255e-07
-5.175125291e-09
1.213518313e-07
-5.319071515e-09
1.220137656e-07
-5.43758557e-09
1.226910548e-07
-5.528408556e-09
1.233806004e-07
-5.589558064e-09
-5.619385386e-09
1.240790383e-07
1.093378973e-07
3.054916528e-11
1.093614873e-07
9.388943664e-11
1.094002896e-07
1.57318939e-10
1.094535735e-07
2.189024367e-10
1.095204101e-07
2.768358678e-10
1.095997309e-07
3.294970209e-10
1.096903784e-07
3.753899781e-10
1.097911514e-07
4.131381963e-10
1.099008512e-07
4.415169669e-10
1.100183257e-07
4.594744335e-10
1.101425087e-07
4.661268893e-10
1.102724532e-07
4.607420336e-10
1.104073583e-07
4.427229167e-10
1.105465892e-07
4.115949783e-10
1.106896911e-07
3.669936957e-10
1.108363974e-07
3.086513992e-10
1.109866331e-07
2.363838768e-10
1.111405144e-07
1.500781941e-10
1.112983458e-07
4.968156606e-11
1.114606075e-07
-6.4798714e-11
1.116279525e-07
-1.933113511e-10
1.118011971e-07
-3.357527652e-10
1.119813232e-07
-4.919698753e-10
1.121694262e-07
-6.617550258e-10
1.123667396e-07
-8.448450518e-10
1.125746138e-07
-1.040903523e-09
1.127944979e-07
-1.249514727e-09
1.130279243e-07
-1.470171346e-09
1.132764949e-07
-1.702258906e-09
1.135418624e-07
-1.945041219e-09
1.138257098e-07
-2.197644962e-09
1.141297282e-07
-2.459043223e-09
1.144555897e-07
-2.728038887e-09
1.148049174e-07
-3.003248542e-09
1.151792512e-07
-3.283087597e-09
1.155800091e-07
-3.565757675e-09
1.160084444e-07
-3.849237678e-09
1.164656e-07
-4.131280048e-09
1.169522587e-07
-4.409413816e-09
1.174688933e-07
-4.680955951e-09
1.18015616e-07
-4.943032345e-09
1.185921317e-07
-5.192609506e-09
1.191976961e-07
-5.426537614e-09
1.198310825e-07
-5.6416051e-09
1.204905619e-07
-5.83460427e-09
1.211738973e-07
-6.002406568e-09
1.218783568e-07
-6.142044836e-09
1.226007474e-07
-6.250798759e-09
1.233374684e-07
-6.32627885e-09
-6.366503669e-09
1.240845868e-07
1.093367088e-07
2.384040365e-11
1.093567222e-07
7.387593894e-11
1.093896294e-07
1.24411466e-10
1.094348304e-07
1.737012048e-10
1.094915756e-07
2.200904291e-10
1.095590101e-07
2.620623184e-10
1.096362112e-07
2.981887785e-10
1.097222233e-07
3.271261475e-10
1.098160936e-07
3.476468872e-10
1.099169072e-07
3.586611135e-10
1.100238197e-07
3.592147643e-10
1.101360851e-07
3.484769978e-10
1.102530797e-07
3.257287192e-10
1.103743208e-07
2.903543616e-10
1.104994808e-07
2.418342455e-10
1.106283969e-07
1.797357767e-10
1.107610775e-07
1.037037978e-10
1.108977062e-07
1.34499787e-11
1.110386344e-07
-9.124640646e-11
1.111843923e-07
-2.105563466e-10
1.113356734e-07
-3.445923602e-10
1.114933344e-07
-4.934137505e-10
1.116583865e-07
-6.570221032e-10
1.11831989e-07
-8.353577618e-10
1.120154388e-07
-1.028295138e-09
1.122101635e-07
-1.235628489e-09
1.124177098e-07
-1.457061147e-09
1.126397309e-07
-1.692192451e-09
1.128779734e-07
-1.940501378e-09
1.131342611e-07
-2.201329057e-09
1.13410476e-07
-2.473860075e-09
1.137085349e-07
-2.757102407e-09
1.140303624e-07
-3.049866448e-09
1.143778577e-07
-3.350743762e-09
1.147528567e-07
-3.658086423e-09
1.151570876e-07
-3.969988284e-09
1.1559212e-07
-4.284269898e-09
1.160593092e-07
-4.598469041e-09
1.165597347e-07
-4.90983889e-09
1.170941351e-07
-5.215355906e-09
1.176628428e-07
-5.511739459e-09
1.182657188e-07
-5.795485106e-09
1.189020947e-07
-6.06291304e-09
1.195707226e-07
-6.310232477e-09
1.202697407e-07
-6.533621829e-09
1.209966579e-07
-6.729323369e-09
1.217483627e-07
-6.893749523e-09
1.2252116e-07
-7.023595941e-09
1.23310836e-07
-7.115954715e-09
-7.16841997e-09
1.241127523e-07
1.093356678e-07
1.817248088e-11
1.093525506e-07
5.699290025e-11
1.093802894e-07
9.667238589e-11
1.094183815e-07
1.356087184e-10
1.094662123e-07
1.722592982e-10
1.095230886e-07
2.051858237e-10
1.095882673e-07
2.330100077e-10
1.096609826e-07
2.54410973e-10