/*--------------------------------*- C++ -*----------------------------------*\
| =========                 |                                                 |
| \\      /  F ield         | foam-extend: Open Source CFD                    |
|  \\    /   O peration     | Version:     4.1                                |
|   \\  /    A nd           | Web:         http://www.foam-extend.org         |
|    \\/     M anipulation  |                                                 |
\*---------------------------------------------------------------------------*/
FoamFile
{
    version     2.0;
    format      ascii;
    class       volVectorField;
    location    "120000";
    object      U;
}
// * * * * * * * * * * * * * * * * * * * * * * * * * * * * * * * * * * * * * //

dimensions      [0 1 -1 0 0 0 0];

internalField   nonuniform List<vector> 
15920
(
(0.0002132400418 5.126085705e-06 0)
(0.0002058370809 1.132430855e-05 0)
(0.0001956928839 1.37516333e-05 0)
(0.000182118758 1.424200811e-05 0)
(0.0001676539157 1.380026563e-05 0)
(0.0001539537021 1.273357894e-05 0)
(0.0001412844429 1.122653206e-05 0)
(0.00012956756 9.503507572e-06 0)
(0.0001188801607 7.763382067e-06 0)
(0.0001093458603 6.133765945e-06 0)
(0.0001009927393 4.683813881e-06 0)
(9.376147887e-05 3.445988089e-06 0)
(8.756060428e-05 2.42711142e-06 0)
(8.229190215e-05 1.615166931e-06 0)
(7.785301779e-05 9.86952254e-07 0)
(7.413945411e-05 5.147469002e-07 0)
(7.104993117e-05 1.705469638e-07 0)
(6.849080274e-05 -7.161376588e-08 0)
(6.637794623e-05 -2.344825953e-07 0)
(6.463719261e-05 -3.371653324e-07 0)
(6.320423605e-05 -3.952199582e-07 0)
(6.202423217e-05 -4.210283524e-07 0)
(6.105109862e-05 -4.242675245e-07 0)
(6.024662978e-05 -4.123921063e-07 0)
(5.957949098e-05 -3.910021519e-07 0)
(5.902421648e-05 -3.641979242e-07 0)
(5.85602774e-05 -3.349077867e-07 0)
(5.817123298e-05 -3.051598273e-07 0)
(5.784396821e-05 -2.762973283e-07 0)
(5.756802413e-05 -2.491479548e-07 0)
(5.733502367e-05 -2.241554737e-07 0)
(5.713818777e-05 -2.01479649e-07 0)
(5.697191478e-05 -1.810655685e-07 0)
(5.683152231e-05 -1.626679315e-07 0)
(5.671307126e-05 -1.459609967e-07 0)
(5.661306288e-05 -1.306646966e-07 0)
(5.652825524e-05 -1.165321197e-07 0)
(5.645555944e-05 -1.03313518e-07 0)
(5.639197473e-05 -9.074716544e-08 0)
(5.633455064e-05 -7.856589418e-08 0)
(5.628040317e-05 -6.651778323e-08 0)
(5.62267223e-05 -5.44312622e-08 0)
(5.61706003e-05 -4.228258236e-08 0)
(5.610904251e-05 -2.998791451e-08 0)
(5.603906822e-05 -1.740724715e-08 0)
(5.595776259e-05 -4.437305025e-09 0)
(5.586227025e-05 8.975958001e-09 0)
(5.574980318e-05 2.284918824e-08 0)
(5.561766029e-05 3.716522658e-08 0)
(5.546325209e-05 5.187506008e-08 0)
(0.000220118907 5.657274195e-06 0)
(0.000225169135 1.297932549e-05 0)
(0.0002303372408 1.666896129e-05 0)
(0.0002340070176 1.86322604e-05 0)
(0.0002358970262 1.977177164e-05 0)
(0.0002362312675 2.020955426e-05 0)
(0.0002351883792 1.998964866e-05 0)
(0.0002329291115 1.925383724e-05 0)
(0.0002296835336 1.815927223e-05 0)
(0.0002257150405 1.682822075e-05 0)
(0.0002212621924 1.535602693e-05 0)
(0.0002165206837 1.382347356e-05 0)
(0.0002116494599 1.229733325e-05 0)
(0.0002067769338 1.082834918e-05 0)
(0.0002020026372 9.451762829e-06 0)
(0.00019739893 8.189598425e-06 0)
(0.0001930149023 7.05314782e-06 0)
(0.0001888811367 6.045293386e-06 0)
(0.0001850139609 5.162707777e-06 0)
(0.0001814189388 4.397842663e-06 0)
(0.0001780937707 3.740583186e-06 0)
(0.0001750306767 3.179535895e-06 0)
(0.0001722182578 2.702986838e-06 0)
(0.0001696429818 2.299584211e-06 0)
(0.000167290205 1.958725928e-06 0)
(0.0001651448542 1.670799319e-06 0)
(0.0001631919128 1.4273194e-06 0)
(0.0001614167591 1.220969665e-06 0)
(0.0001598053782 1.045565605e-06 0)
(0.0001583444775 8.95970097e-07 0)
(0.0001570215325 7.679841517e-07 0)
(0.0001558247873 6.582285824e-07 0)
(0.0001547432319 5.640257392e-07 0)
(0.0001537665334 4.832993154e-07 0)
(0.0001528849158 4.144541754e-07 0)
(0.0001520890883 3.562590427e-07 0)
(0.000151370247 3.077713382e-07 0)
(0.0001507200197 2.682837449e-07 0)
(0.0001501303897 2.372760307e-07 0)
(0.0001495936321 2.143739155e-07 0)
(0.0001491022508 1.993234434e-07 0)
(0.0001486488633 1.919568491e-07 0)
(0.0001482262325 1.920910261e-07 0)
(0.0001478274147 1.995383496e-07 0)
(0.0001474456156 2.141389218e-07 0)
(0.0001470741073 2.357415301e-07 0)
(0.0001467062631 2.641800281e-07 0)
(0.0001463355839 2.992615972e-07 0)
(0.000145955706 3.407573434e-07 0)
(0.0001455604124 3.883932692e-07 0)
(0.0002187776547 1.484880513e-06 0)
(0.0002200307687 4.444050188e-06 0)
(0.0002226027654 7.11224858e-06 0)
(0.0002259310731 9.504509688e-06 0)
(0.0002294833067 1.164203539e-05 0)
(0.0002330261474 1.34075133e-05 0)
(0.0002363887608 1.470290003e-05 0)
(0.0002393756617 1.552214527e-05 0)
(0.0002418359534 1.59092358e-05 0)
(0.0002436995134 1.592078957e-05 0)
(0.0002449576095 1.561942137e-05 0)
(0.0002456377563 1.507336502e-05 0)
(0.0002457912143 1.435080889e-05 0)
(0.0002454849187 1.351340712e-05 0)
(0.0002447927442 1.261275395e-05 0)
(0.0002437881805 1.168969169e-05 0)
(0.0002425399097 1.077497452e-05 0)
(0.0002411096756 9.890432327e-06 0)
(0.0002395513773 9.050393782e-06 0)
(0.0002379108577 8.263217999e-06 0)
(0.0002362262103 7.532756537e-06 0)
(0.0002345284457 6.85962655e-06 0)
(0.0002328423376 6.242255853e-06 0)
(0.0002311872667 5.677714046e-06 0)
(0.0002295780314 5.162305899e-06 0)
(0.0002280256753 4.692015202e-06 0)
(0.0002265381993 4.262829453e-06 0)
(0.0002251211338 3.870953535e-06 0)
(0.0002237780096 3.512932879e-06 0)
(0.0002225107471 3.185712318e-06 0)
(0.0002213199731 2.886651827e-06 0)
(0.0002202052734 2.613513472e-06 0)
(0.0002191653896 2.364428314e-06 0)
(0.0002181983641 2.137843642e-06 0)
(0.0002173016533 1.932495584e-06 0)
(0.000216472231 1.747391497e-06 0)
(0.000215706674 1.581763758e-06 0)
(0.0002150012125 1.435018283e-06 0)
(0.0002143517615 1.306691372e-06 0)
(0.000213753945 1.196415201e-06 0)
(0.0002132031216 1.10389001e-06 0)
(0.0002126944106 1.028874274e-06 0)
(0.0002122227313 9.711996105e-07 0)
(0.0002117828317 9.307020163e-07 0)
(0.0002113692743 9.071841957e-07 0)
(0.0002109764401 9.004201368e-07 0)
(0.000210598569 9.10152264e-07 0)
(0.000210229795 9.360778297e-07 0)
(0.0002098641657 9.778368209e-07 0)
(0.0002094956611 1.035003195e-06 0)
(0.000218769705 1.506648635e-06 0)
(0.000219490079 4.38594387e-06 0)
(0.0002207536074 6.831094663e-06 0)
(0.0002223767806 8.729574354e-06 0)
(0.0002242022232 1.017603765e-05 0)
(0.0002261979701 1.127373826e-05 0)
(0.0002283594592 1.207000156e-05 0)
(0.0002306301534 1.259686622e-05 0)
(0.0002329220704 1.289077477e-05 0)
(0.00023515532 1.298595896e-05 0)
(0.0002372677384 1.291103216e-05 0)
(0.0002392105201 1.269241155e-05 0)
(0.0002409476486 1.235660699e-05 0)
(0.0002424578179 1.192936278e-05 0)
(0.0002437339421 1.143441237e-05 0)
(0.0002447803636 1.089291257e-05 0)
(0.0002456096473 1.032322498e-05 0)
(0.0002462398334 9.740743212e-06 0)
(0.0002466921734 9.157826743e-06 0)
(0.0002469892756 8.583932816e-06 0)
(0.0002471536945 8.025917516e-06 0)
(0.0002472069709 7.488424594e-06 0)
(0.0002471690492 6.974297947e-06 0)
(0.0002470579711 6.484979577e-06 0)
(0.0002468897776 6.020913464e-06 0)
(0.0002466785594 5.581876133e-06 0)
(0.0002464365731 5.167227617e-06 0)
(0.0002461743844 4.776104676e-06 0)
(0.000245901027 4.407567376e-06 0)
(0.0002456241676 4.060704369e-06 0)
(0.0002453502616 3.734702381e-06 0)
(0.0002450846926 3.428886633e-06 0)
(0.0002448318906 3.142739403e-06 0)
(0.0002445954331 2.875903597e-06 0)
(0.0002443781288 2.628181268e-06 0)
(0.0002441820895 2.399522467e-06 0)
(0.0002440087914 2.190000108e-06 0)
(0.0002438591227 1.99978219e-06 0)
(0.0002437334218 1.82910722e-06 0)
(0.0002436315076 1.678265384e-06 0)
(0.0002435527108 1.547579469e-06 0)
(0.0002434959013 1.437398557e-06 0)
(0.0002434595082 1.348051248e-06 0)
(0.0002434415493 1.279830778e-06 0)
(0.0002434396554 1.232990119e-06 0)
(0.0002434510841 1.207722165e-06 0)
(0.0002434727417 1.204148981e-06 0)
(0.0002435012112 1.222312832e-06 0)
(0.0002435327804 1.262162375e-06 0)
(0.0002435634694 1.32354117e-06 0)
(0.0002187106536 1.058715038e-06 0)
(0.0002191103727 3.081922252e-06 0)
(0.0002199123626 4.886951665e-06 0)
(0.0002210341691 6.414981025e-06 0)
(0.0002223416101 7.677897858e-06 0)
(0.0002237528137 8.699918907e-06 0)
(0.0002252336056 9.488230542e-06 0)
(0.0002267564004 1.004936991e-05 0)
(0.0002282889521 1.040312965e-05 0)
(0.0002298039102 1.057759111e-05 0)
(0.0002312824336 1.060094931e-05 0)
(0.0002327101217 1.049918682e-05 0)
(0.0002340742212 1.02965355e-05 0)
(0.000235364207 1.001529271e-05 0)
(0.0002365728776 9.675187975e-06 0)
(0.0002376964238 9.293098587e-06 0)
(0.0002387339277 8.88311823e-06 0)
(0.0002396868698 8.456735058e-06 0)
(0.0002405587004 8.023033076e-06 0)
(0.0002413543817 7.58894304e-06 0)
(0.0002420799094 7.159547258e-06 0)
(0.000242741883 6.738405994e-06 0)
(0.0002433471612 6.327874392e-06 0)
(0.0002439026024 5.929394495e-06 0)
(0.0002444148789 5.54375886e-06 0)
(0.0002448903548 5.171325595e-06 0)
(0.000245335012 4.812185948e-06 0)
(0.000245754411 4.466296457e-06 0)
(0.0002461536766 4.133581473e-06 0)
(0.0002465375008 3.814006899e-06 0)
(0.0002469101555 3.507628126e-06 0)
(0.0002472755072 3.21461736e-06 0)
(0.0002476370329 2.935275731e-06 0)
(0.0002479978323 2.670034002e-06 0)
(0.0002483606377 2.419446032e-06 0)
(0.0002487278203 2.184175469e-06 0)
(0.0002491013981 1.964978351e-06 0)
(0.0002494830393 1.762682746e-06 0)
(0.0002498740631 1.578163421e-06 0)
(0.0002502754371 1.412329036e-06 0)
(0.0002506877886 1.266071232e-06 0)
(0.0002511113677 1.14034863e-06 0)
(0.0002515460571 1.03605779e-06 0)
(0.0002519914253 9.540169486e-07 0)
(0.0002524466956 8.950077754e-07 0)
(0.0002529107292 8.597380715e-07 0)
(0.0002533820591 8.488084929e-07 0)
(0.0002538589081 8.627064308e-07 0)
(0.0002543391936 9.017980123e-07 0)
(0.0002548205428 9.663171044e-07 0)
(0.0002186949874 8.191194647e-07 0)
(0.0002189755969 2.42581088e-06 0)
(0.0002195567894 3.925305609e-06 0)
(0.0002203988939 5.253032812e-06 0)
(0.0002214098197 6.381940092e-06 0)
(0.000222519603 7.309620908e-06 0)
(0.0002236900503 8.039490524e-06 0)
(0.0002248932216 8.57803552e-06 0)
(0.0002261006662 8.938744657e-06 0)
(0.0002272873952 9.141109153e-06 0)
(0.0002284362686 9.206593977e-06 0)
(0.0002295370905 9.156357964e-06 0)
(0.0002305840179 9.010801827e-06 0)
(0.0002315742603 8.789222087e-06 0)
(0.0002325076714 8.509150892e-06 0)
(0.0002333862287 8.185852913e-06 0)
(0.0002342133345 7.832186804e-06 0)
(0.0002349932449 7.45869934e-06 0)
(0.0002357307036 7.073809997e-06 0)
(0.0002364306869 6.684042353e-06 0)
(0.0002370981951 6.294291863e-06 0)
(0.0002377380887 5.908108501e-06 0)
(0.0002383549772 5.527969802e-06 0)
(0.0002389531554 5.155529416e-06 0)
(0.0002395365717 4.791835682e-06 0)
(0.0002401088219 4.43751766e-06 0)
(0.0002406731615 4.092938103e-06 0)
(0.0002412325286 3.758315982e-06 0)
(0.0002417895699 3.433822044e-06 0)
(0.0002423466681 3.119649453e-06 0)
(0.0002429059672 2.816062794e-06 0)
(0.0002434693956 2.523429955e-06 0)
(0.0002440386833 2.242240263e-06 0)
(0.0002446153739 1.973111165e-06 0)
(0.0002452008305 1.716788646e-06 0)
(0.0002457962379 1.47413078e-06 0)
(0.0002464026017 1.24610726e-06 0)
(0.0002470207402 1.033786088e-06 0)
(0.0002476512831 8.382953926e-07 0)
(0.0002482946284 6.608127101e-07 0)
(0.0002489510821 5.02579229e-07 0)
(0.0002496205323 3.647525746e-07 0)
(0.0002503025899 2.485228261e-07 0)
(0.0002509968209 1.550788079e-07 0)
(0.0002517026312 8.550683329e-08 0)
(0.0002524191403 4.080396284e-08 0)
(0.0002531452149 2.188350447e-08 0)
(0.000253879506 2.954771527e-08 0)
(0.0002546204496 6.446884616e-08 0)
(0.0002553662726 1.271783348e-07 0)
(0.0002186864161 6.52987665e-07 0)
(0.0002188947821 1.940652552e-06 0)
(0.0002193262722 3.159221276e-06 0)
(0.000219961793 4.258528595e-06 0)
(0.0002207445461 5.211825151e-06 0)
(0.0002216263985 6.012501202e-06 0)
(0.0002225763409 6.661690425e-06 0)
(0.0002235697508 7.162855179e-06 0)
(0.0002245819738 7.522873035e-06 0)
(0.0002255902181 7.752754958e-06 0)
(0.0002265767836 7.866132064e-06 0)
(0.0002275294762 7.877549098e-06 0)
(0.0002284403607 7.801648995e-06 0)
(0.0002293048003 7.652762405e-06 0)
(0.0002301210381 7.444444078e-06 0)
(0.0002308897894 7.18903912e-06 0)
(0.0002316136596 6.897437812e-06 0)
(0.0002322965504 6.579004672e-06 0)
(0.0002329431803 6.241602646e-06 0)
(0.0002335587161 5.891673037e-06 0)
(0.0002341484792 5.534362288e-06 0)
(0.0002347177174 5.173684036e-06 0)
(0.0002352714422 4.812697949e-06 0)
(0.0002358143265 4.45368927e-06 0)
(0.0002363506484 4.098339282e-06 0)
(0.0002368842683 3.747880721e-06 0)
(0.0002374186315 3.403233551e-06 0)
(0.0002379567848 3.06511903e-06 0)
(0.000238501403 2.734152853e-06 0)
(0.0002390548179 2.410918287e-06 0)
(0.0002396190503 2.096020892e-06 0)
(0.0002401958393 1.790129466e-06 0)
(0.0002407866683 1.494003e-06 0)
(0.0002413927865 1.208501404e-06 0)
(0.0002420152163 9.346219045e-07 0)
(0.0002426547706 6.734407393e-07 0)
(0.0002433120854 4.26134557e-07 0)
(0.0002439876286 1.939799299e-07 0)
(0.000244681597 -2.164906656e-08 0)
(0.0002453940301 -2.193264792e-07 0)
(0.0002461246373 -3.975637771e-07 0)
(0.0002468731275 -5.549395089e-07 0)
(0.0002476390326 -6.900022502e-07 0)
(0.0002484214901 -8.013093757e-07 0)
(0.0002492193561 -8.875233187e-07 0)
(0.0002500313307 -9.473972371e-07 0)
(0.0002508559326 -9.797730362e-07 0)
(0.0002516914788 -9.836135291e-07 0)
(0.0002525361053 -9.580258481e-07 0)
(0.0002533877877 -9.022757331e-07 0)
(0.0002186800641 5.271614111e-07 0)
(0.0002188382748 1.569123808e-06 0)
(0.0002191679071 2.564907135e-06 0)
(0.0002196603444 3.479582295e-06 0)
(0.0002202787668 4.290742991e-06 0)
(0.000220989036 4.988294985e-06 0)
(0.0002217663872 5.56853265e-06 0)
(0.0002225902228 6.030865442e-06 0)
(0.0002234406803 6.377924398e-06 0)
(0.000224299453 6.615906616e-06 0)
(0.0002251515414 6.753692491e-06 0)
(0.0002259856923 6.801544618e-06 0)
(0.0002267938414 6.770245046e-06 0)
(0.0002275705504 6.670636331e-06 0)
(0.0002283127197 6.513255381e-06 0)
(0.0002290193443 6.30798776e-06 0)
(0.0002296911616 6.063817851e-06 0)
(0.0002303302467 5.788702261e-06 0)
(0.000230939647 5.489533182e-06 0)
(0.0002315230782 5.172158739e-06 0)
(0.0002320846673 4.841446215e-06 0)
(0.0002326287376 4.501378807e-06 0)
(0.0002331596369 4.155173327e-06 0)
(0.0002336816092 3.8054062e-06 0)
(0.0002341987047 3.454138579e-06 0)
(0.0002347147203 3.103034477e-06 0)
(0.0002352331635 2.753467825e-06 0)
(0.0002357572349 2.406615412e-06 0)
(0.0002362898233 2.063536897e-06 0)
(0.0002368335077 1.725239544e-06 0)
(0.0002373905671 1.392728078e-06 0)
(0.0002379629952 1.067045071e-06 0)
(0.0002385525026 7.49304777e-07 0)
(0.0002391605596 4.406977117e-07 0)
(0.0002397884086 1.42484618e-07 0)
(0.0002404369596 -1.439349782e-07 0)
(0.000241106899 -4.170679996e-07 0)
(0.0002417986383 -6.753513885e-07 0)
(0.0002425123911 -9.171342205e-07 0)
(0.0002432481142 -1.14071086e-06 0)
(0.000244005502 -1.344376781e-06 0)
(0.0002447840217 -1.526342748e-06 0)
(0.0002455829089 -1.684867965e-06 0)
(0.0002464011183 -1.818281496e-06 0)
(0.0002472373638 -1.924948948e-06 0)
(0.000248090145 -2.003321681e-06 0)
(0.0002489577339 -2.051980715e-06 0)
(0.0002498381842 -2.069654941e-06 0)
(0.0002507293598 -2.055239723e-06 0)
(0.0002516289584 -2.00781644e-06 0)
(0.0002186757572 4.302006468e-07 0)
(0.000218799907 1.282831779e-06 0)
(0.0002190593764 2.104087958e-06 0)
(0.0002194500454 2.868322149e-06 0)
(0.0002199464283 3.556733083e-06 0)
(0.0002205240446 4.1583596e-06 0)
(0.0002211641564 4.667485557e-06 0)
(0.0002218505189 5.081745274e-06 0)
(0.0002225673876 5.401705175e-06 0)
(0.0002233001019 5.630746136e-06 0)
(0.0002240362082 5.774478007e-06 0)
(0.0002247658611 5.839902844e-06 0)
(0.000225481619 5.834749461e-06 0)
(0.0002261781352 5.767050691e-06 0)
(0.0002268519508 5.64482525e-06 0)
(0.0002275013122 5.47579392e-06 0)
(0.0002281259342 5.267156044e-06 0)
(0.0002287267243 5.025451744e-06 0)
(0.0002293055164 4.756498533e-06 0)
(0.0002298648385 4.465379232e-06 0)
(0.0002304077095 4.156466601e-06 0)
(0.0002309374639 3.833476345e-06 0)
(0.0002314576031 3.499540267e-06 0)
(0.0002319716771 3.157290708e-06 0)
(0.0002324831928 2.808948956e-06 0)
(0.0002329955455 2.456412471e-06 0)
(0.0002335119688 2.101337329e-06 0)
(0.0002340355013 1.745212284e-06 0)
(0.0002345689636 1.389430071e-06 0)
(0.0002351149407 1.035325185e-06 0)
(0.0002356757741 6.842388962e-07 0)
(0.0002362535718 3.375451839e-07 0)
(0.0002368502027 -3.323651075e-09 0)
(0.0002374672311 -3.368443197e-07 0)
(0.0002381059486 -6.614314313e-07 0)
(0.0002387674673 -9.753593332e-07 0)
(0.0002394525993 -1.276801899e-06 0)
(0.0002401618874 -1.563854794e-06 0)
(0.0002408956097 -1.834552146e-06 0)
(0.0002416537586 -2.08686386e-06 0)
(0.000242436039 -2.318720122e-06 0)
(0.0002432418679 -2.528024792e-06 0)
(0.0002440703784 -2.712711019e-06 0)
(0.0002449204173 -2.870756239e-06 0)
(0.0002457905456 -3.00020309e-06 0)
(0.0002466790546 -3.099206666e-06 0)
(0.0002475839813 -3.166067104e-06 0)
(0.0002485031235 -3.199252327e-06 0)
(0.0002494340629 -3.197423817e-06 0)
(0.0002503741929 -3.159461156e-06 0)
(0.0002186726635 3.535342318e-07 0)
(0.0002187722533 1.055761567e-06 0)
(0.0002189806135 1.735823098e-06 0)
(0.0002192958162 2.374318932e-06 0)
(0.0002196996039 2.956064668e-06 0)
(0.0002201743354 3.471093986e-06 0)
(0.0002207061411 3.913320947e-06 0)
(0.000221282425 4.279425368e-06 0)
(0.0002218906435 4.568472385e-06 0)
(0.0002225189327 4.781741372e-06 0)
(0.0002231569767 4.92236104e-06 0)
(0.0002237963376 4.994785101e-06 0)
(0.0002244303886 5.004306249e-06 0)
(0.0002250541596 4.956691555e-06 0)
(0.0002256642103 4.857901242e-06 0)
(0.0002262585048 4.713849763e-06 0)
(0.0002268362468 4.53021132e-06 0)
(0.0002273976859 4.312283485e-06 0)
(0.000227943921 4.064907096e-06 0)
(0.0002284767188 3.792429951e-06 0)
(0.0002289983516 3.498703278e-06 0)
(0.0002295114525 3.187103934e-06 0)
(0.0002300188911 2.860576352e-06 0)
(0.0002305236684 2.521687699e-06 0)
(0.0002310288322 2.172690219e-06 0)
(0.0002315374099 1.815586138e-06 0)
(0.0002320523552 1.452191834e-06 0)
(0.0002325765144 1.084183612e-06 0)
(0.0002331125728 7.13215617e-07 0)
(0.0002336630473 3.408807028e-07 0)
(0.0002342302918 -3.123860269e-08 0)
(0.0002348164257 -4.014787023e-07 0)
(0.0002354233407 -7.681060521e-07 0)
(0.0002360527181 -1.129289102e-06 0)
(0.0002367059985 -1.483068075e-06 0)
(0.0002373843663 -1.827410087e-06 0)
(0.0002380887212 -2.16017705e-06 0)
(0.000238819683 -2.479120144e-06 0)
(0.0002395775823 -2.781904102e-06 0)
(0.0002403624428 -3.066122295e-06 0)
(0.0002411739702 -3.329320428e-06 0)
(0.0002420115447 -3.569025241e-06 0)
(0.000242874221 -3.782777623e-06 0)
(0.0002437607267 -3.968170959e-06 0)
(0.0002446694647 -4.122885017e-06 0)
(0.0002455985262 -4.244722917e-06 0)
(0.0002465457084 -4.331649758e-06 0)
(0.0002475085331 -4.381827623e-06 0)
(0.0002484842741 -4.393647502e-06 0)
(0.0002494699892 -4.365757722e-06 0)
(0.0002186703406 2.916208167e-07 0)
(0.0002187515483 8.720749913e-07 0)
(0.0002189215793 1.436670587e-06 0)
(0.0002191796941 1.970458059e-06 0)
(0.0002195123946 2.461224381e-06 0)
(0.0002199066968 2.900249373e-06 0)
(0.0002203522871 3.28153172e-06 0)
(0.0002208394509 3.601195477e-06 0)
(0.0002213582493 3.857303589e-06 0)
(0.000221899141 4.049737497e-06 0)
(0.0002224536865 4.179937979e-06 0)
(0.0002230148046 4.250540708e-06 0)
(0.0002235767565 4.265017961e-06 0)
(0.0002241350836 4.227385083e-06 0)
(0.0002246865515 4.141965066e-06 0)
(0.000225229076 4.013190383e-06 0)
(0.0002257616143 3.845438494e-06 0)
(0.0002262840301 3.642907588e-06 0)
(0.0002267969519 3.409533942e-06 0)
(0.0002273016351 3.148945036e-06 0)
(0.0002277998345 2.864441002e-06 0)
(0.0002282936869 2.558998585e-06 0)
(0.0002287856065 2.235293285e-06 0)
(0.0002292781942 1.895734405e-06 0)
(0.00022977416 1.542508854e-06 0)
(0.0002302762591 1.177635678e-06 0)
(0.0002307872203 8.029971125e-07 0)
(0.0002313097801 4.204171931e-07 0)
(0.0002318465711 3.163372955e-08 0)
(0.0002324000006 -3.615593729e-07 0)
(0.0002329724013 -7.573079436e-07 0)
(0.0002335659865 -1.153702668e-06 0)
(0.0002341827356 -1.548740525e-06 0)
(0.0002348244079 -1.940308966e-06 0)
(0.0002354925333 -2.326168573e-06 0)
(0.00023618839 -2.703957595e-06 0)
(0.0002369129818 -3.071181557e-06 0)
(0.0002376670173 -3.425218951e-06 0)
(0.0002384508908 -3.763340367e-06 0)
(0.000239264662 -4.082729842e-06 0)
(0.0002401080398 -4.380511704e-06 0)
(0.0002409803701 -4.653782783e-06 0)
(0.0002418806295 -4.899649895e-06 0)
(0.0002428074216 -5.115273089e-06 0)
(0.0002437589795 -5.297908341e-06 0)
(0.0002447331761 -5.444952283e-06 0)
(0.0002457275424 -5.553988429e-06 0)
(0.0002467392915 -5.622830468e-06 0)
(0.0002477653501 -5.649561477e-06 0)
(0.0002488023975 -5.632568563e-06 0)
(0.0002186685577 2.408478216e-07 0)
(0.0002187356786 7.213108921e-07 0)
(0.0002188762788 1.190445347e-06 0)
(0.0002190902513 1.636448778e-06 0)
(0.0002193673214 2.049351399e-06 0)
(0.0002196977286 2.421586276e-06 0)
(0.0002200737594 2.7475047e-06 0)
(0.0002204879656 3.023067639e-06 0)
(0.0002209325279 3.245787318e-06 0)
(0.0002213998143 3.414655018e-06 0)
(0.0002218829664 3.529949505e-06 0)
(0.0002223761098 3.592976954e-06 0)
(0.0002228743654 3.605814741e-06 0)
(0.0002233738387 3.571090948e-06 0)
(0.0002238716104 3.491798171e-06 0)
(0.0002243657012 3.371132959e-06 0)
(0.0002248550033 3.212359683e-06 0)
(0.0002253391891 3.018702958e-06 0)
(0.0002258186103 2.793270567e-06 0)
(0.0002262941969 2.53900432e-06 0)
(0.0002267673581 2.258654321e-06 0)
(0.0002272398889 1.954771845e-06 0)
(0.0002277138848 1.629718535e-06 0)
(0.0002281916637 1.285687389e-06 0)
(0.0002286757057 9.247221958e-07 0)
(0.0002291685697 5.488197752e-07 0)
(0.0002296728771 1.598393204e-07 0)
(0.0002301912023 -2.403529555e-07 0)
(0.0002307260864 -6.499132296e-07 0)
(0.0002312800892 -1.066902391e-06 0)
(0.0002318555964 -1.489277557e-06 0)
(0.000232454819 -1.914932128e-06 0)
(0.0002330798313 -2.341635294e-06 0)
(0.0002337325227 -2.767005884e-06 0)
(0.0002344145552 -3.188504955e-06 0)
(0.0002351273398 -3.603431615e-06 0)
(0.0002358720074 -4.008924238e-06 0)
(0.0002366493779 -4.401968469e-06 0)
(0.0002374599333 -4.779413756e-06 0)
(0.0002383037919 -5.137996992e-06 0)
(0.0002391806851 -5.474373242e-06 0)
(0.0002400899378 -5.785153676e-06 0)
(0.000241030455 -6.066950154e-06 0)
(0.0002420007144 -6.316425308e-06 0)
(0.0002429987667 -6.530345588e-06 0)
(0.0002440222442 -6.705636336e-06 0)
(0.00024506838 -6.839437637e-06 0)
(0.0002461340361 -6.929158054e-06 0)
(0.0002472157413 -6.972523937e-06 0)
(0.0002483097376 -6.967622626e-06 0)
(0.0002186671587 1.986938302e-07 0)
(0.0002187232345 5.960681856e-07 0)
(0.0002188407178 9.854643101e-07 0)
(0.0002190198324 1.357348446e-06 0)
(0.0002192525778 1.703452231e-06 0)
(0.0002195314861 2.017211277e-06 0)
(0.0002198507463 2.293426456e-06 0)
(0.0002202046479 2.528095697e-06 0)
(0.0002205870489 2.718428122e-06 0)
(0.0002209918562 2.862818622e-06 0)
(0.0002214135201 2.960716928e-06 0)
(0.0002218472139 3.012444146e-06 0)
(0.0002222888561 3.019011102e-06 0)
(0.0002227351253 2.981956523e-06 0)
(0.0002231834765 2.903203633e-06 0)
(0.0002236321326 2.784932258e-06 0)
(0.0002240800451 2.629467885e-06 0)
(0.0002245268346 2.439191167e-06 0)
(0.0002249727211 2.216469821e-06 0)
(0.0002254184511 1.963611973e-06 0)
(0.0002258652227 1.68283869e-06 0)
(0.0002263146127 1.376272117e-06 0)
(0.0002267685074 1.045940647e-06 0)
(0.0002272290242 6.937814203e-07 0)
(0.0002276985354 3.216779889e-07 0)
(0.0002281794758 -6.858138114e-08 0)
(0.0002286743067 -4.751317176e-07 0)
(0.000229185636 -8.96113775e-07 0)
(0.0002297160681 -1.329569568e-06 0)
(0.0002302681498 -1.773483154e-06 0)
(0.0002308443327 -2.225738956e-06 0)
(0.0002314469675 -2.684055988e-06 0)
(0.0002320782788 -3.145979135e-06 0)
(0.0002327403134 -3.608872245e-06 0)
(0.0002334349028 -4.069902883e-06 0)
(0.0002341636295 -4.526035791e-06 0)
(0.0002349277899 -4.974034519e-06 0)
(0.0002357283562 -5.410469251e-06 0)
(0.0002365659387 -5.831733897e-06 0)
(0.0002374407509 -6.234072924e-06 0)
(0.0002383525759 -6.613617255e-06 0)
(0.0002393007395 -6.966428952e-06 0)
(0.0002402840879 -7.28855403e-06 0)
(0.0002413009747 -7.576082243e-06 0)
(0.0002423492567 -7.825211969e-06 0)
(0.000243426301 -8.032318253e-06 0)
(0.0002445290043 -8.194021966e-06 0)
(0.0002456538257 -8.30725725e-06 0)
(0.0002467968311 -8.369334089e-06 0)
(0.0002479537501 -8.377993152e-06 0)
(0.000218666038 1.633531063e-07 0)
(0.0002187132723 4.910386648e-07 0)
(0.0002188122279 8.133026572e-07 0)
(0.0002189632904 1.122277012e-06 0)
(0.0002191601132 1.410982629e-06 0)
(0.00021939689 1.673674618e-06 0)
(0.0002196692008 1.90558522e-06 0)
(0.0002199726529 2.102829317e-06 0)
(0.0002203024198 2.262459167e-06 0)
(0.0002206536465 2.382475003e-06 0)
(0.0002210218646 2.461740146e-06 0)
(0.0002214031442 2.499850657e-06 0)
(0.0002217941198 2.497005199e-06 0)
(0.0002221920162 2.45388763e-06 0)
(0.0002225946786 2.371559532e-06 0)
(0.0002230005824 2.251361104e-06 0)
(0.0002234088138 2.094822867e-06 0)
(0.0002238190339 1.903591727e-06 0)
(0.0002242314324 1.679373449e-06 0)
(0.0002246466771 1.423890845e-06 0)
(0.0002250658591 1.138859146e-06 0)
(0.0002254904414 8.259615819e-07 0)
(0.0002259221906 4.868974701e-07 0)
(0.0002263631436 1.233175322e-07 0)
(0.0002268154903 -2.631328515e-07 0)
(0.0002272816483 -6.708226665e-07 0)
(0.000227764204 -1.097976192e-06 0)
(0.0002282657204 -1.542763903e-06 0)
(0.0002287888228 -2.003265914e-06 0)
(0.0002293361566 -2.477431382e-06 0)
(0.0002299103255 -2.963036917e-06 0)
(0.0002305138548 -3.457657773e-06 0)
(0.0002311491561 -3.958656406e-06 0)
(0.0002318184851 -4.463165035e-06 0)
(0.0002325238972 -4.968068783e-06 0)
(0.0002332672033 -5.469997483e-06 0)
(0.000234049923 -5.965325549e-06 0)
(0.0002348732365 -6.450180434e-06 0)
(0.0002357379357 -6.920461379e-06 0)
(0.0002366443774 -7.371869115e-06 0)
(0.0002375924393 -7.799946712e-06 0)
(0.0002385814807 -8.200131601e-06 0)
(0.000239610311 -8.567818256e-06 0)
(0.0002406771668 -8.898430302e-06 0)
(0.0002417797023 -9.187500073e-06 0)
(0.0002429149925 -9.430753114e-06 0)
(0.0002440795529 -9.624194912e-06 0)
(0.0002452693756 -9.764196477e-06 0)
(0.0002464799831 -9.847574641e-06 0)
(0.000247706497 -9.871662681e-06 0)
(0.000218665123 1.335084917e-07 0)
(0.000218705143 4.02341555e-07 0)
(0.0002187889652 6.677585656e-07 0)
(0.0002189170371 9.231278473e-07 0)
(0.0002190842449 1.162445513e-06 0)
(0.0002192860087 1.380616934e-06 0)
(0.0002195189346 1.573251403e-06 0)
(0.0002197796284 1.736607828e-06 0)
(0.0002200642934 1.867668684e-06 0)
(0.0002203690663 1.964172625e-06 0)
(0.0002206903648 2.024561523e-06 0)
(0.0002210250144 2.04788746e-06 0)
(0.0002213702746 2.033719823e-06 0)
(0.0002217238696 1.982061848e-06 0)
(0.0002220840249 1.893272567e-06 0)
(0.0002224494871 1.767992185e-06 0)
(0.0002228195199 1.607073464e-06 0)
(0.0002231938838 1.411522903e-06 0)
(0.000223572807 1.182454104e-06 0)
(0.0002239569534 9.210539777e-07 0)
(0.00022434737 6.285581837e-07 0)
(0.0002247455052 3.062516166e-07 0)
(0.0002251530963 -4.459109017e-08 0)
(0.0002255720741 -4.226169742e-07 0)
(0.0002260046583 -8.264090053e-07 0)
(0.0002264533078 -1.254437611e-06 0)
(0.0002269206011 -1.705145219e-06 0)
(0.0002274091977 -2.176825258e-06 0)
(0.0002279218466 -2.667599666e-06 0)
(0.0002284613445 -3.175404902e-06 0)
(0.0002290304848 -3.69796241e-06 0)
(0.0002296320154 -4.232749889e-06 0)
(0.0002302685976 -4.776977048e-06 0)
(0.0002309427604 -5.32756417e-06 0)
(0.0002316568496 -5.881124128e-06 0)
(0.0002324129737 -6.433951068e-06 0)
(0.0002332129466 -6.982017668e-06 0)
(0.0002340582275 -7.520982273e-06 0)
(0.00023494986 -8.046207609e-06 0)
(0.0002358884106 -8.552792602e-06 0)
(0.0002368739105 -9.035618235e-06 0)
(0.0002379058013 -9.489407734e-06 0)
(0.0002389828895 -9.908800719e-06 0)
(0.0002401033118 -1.028844021e-05 0)
(0.0002412645151 -1.062307041e-05 0)
(0.0002424632549 -1.090764241e-05 0)
(0.000243695613 -1.113742396e-05 0)
(0.0002449570376 -1.130810908e-05 0)
(0.0002462424067 -1.141592205e-05 0)
(0.0002475461126 -1.145770962e-05 0)
(0.000218664362 1.081824717e-07 0)
(0.000218698386 3.270904787e-07 0)
(0.0002187696191 5.441957343e-07 0)
(0.0002188785103 7.537923256e-07 0)
(0.0002190208852 9.506149157e-07 0)
(0.0002191930864 1.130077021e-06 0)
(0.0002193924824 1.288100637e-06 0)
(0.0002196164369 1.421084132e-06 0)
(0.0002198619565 1.525983383e-06 0)
(0.0002201259689 1.600356624e-06 0)
(0.0002204056126 1.642333433e-06 0)
(0.0002206983425 1.650548204e-06 0)
(0.0002210019551 1.624074278e-06 0)
(0.0002213146189 1.562365978e-06 0)
(0.0002216349142 1.465203519e-06 0)
(0.0002219618582 1.332638219e-06 0)
(0.0002222949102 1.164940314e-06 0)
(0.0002226339644 9.625533969e-07 0)
(0.0002229793348 7.260574196e-07 0)
(0.0002233317317 4.561431738e-07 0)
(0.0002236922521 1.535905213e-07 0)
(0.0002240622869 -1.807314972e-07 0)
(0.0002244435567 -5.459139553e-07 0)
(0.0002248381369 -9.409161776e-07 0)
(0.000225248292 -1.364579222e-06 0)
(0.0002256764754 -1.815645875e-06 0)
(0.0002261253481 -2.292730943e-06 0)
(0.0002265977242 -2.794262052e-06 0)
(0.000227096528 -3.318455897e-06 0)
(0.0002276247615 -3.863294951e-06 0)
(0.0002281854638 -4.426496378e-06 0)
(0.0002287816671 -5.005479198e-06 0)
(0.0002294163518 -5.597334042e-06 0)
(0.0002300923948 -6.198796519e-06 0)
(0.0002308125117 -6.806224497e-06 0)
(0.0002315791932 -7.415581545e-06 0)
(0.0002323946366 -8.022429102e-06 0)
(0.0002332606727 -8.621929752e-06 0)
(0.0002341786887 -9.208864123e-06 0)
(0.0002351495498 -9.777663669e-06 0)
(0.000236173522 -1.032246096e-05 0)
(0.0002372501985 -1.083715834e-05 0)
(0.0002383784355 -1.131551492e-05 0)
(0.0002395562999 -1.175125128e-05 0)
(0.0002407810356 -1.213816984e-05 0)
(0.0002420490517 -1.247028766e-05 0)
(0.0002433559368 -1.274197666e-05 0)
(0.0002446965022 -1.294810517e-05 0)
(0.0002460648559 -1.308417377e-05 0)
(0.0002474545078 -1.314643744e-05 0)
(0.0002186637178 8.663996579e-08 0)
(0.0002186926679 2.631118025e-07 0)
(0.0002187532405 4.39110423e-07 0)
(0.0002188458481 6.09627546e-07 0)
(0.0002189670475 7.699571023e-07 0)
(0.0002191138855 9.159043854e-07 0)