/*--------------------------------*- C++ -*----------------------------------*\
| =========                 |                                                 |
| \\      /  F ield         | foam-extend: Open Source CFD                    |
|  \\    /   O peration     | Version:     4.1                                |
|   \\  /    A nd           | Web:         http://www.foam-extend.org         |
|    \\/     M anipulation  |                                                 |
\*---------------------------------------------------------------------------*/
FoamFile
{
    version     2.0;
    format      ascii;
    class       volVectorField;
    location    "120000";
    object      vorticity;
}
// * * * * * * * * * * * * * * * * * * * * * * * * * * * * * * * * * * * * * //

dimensions      [0 0 -1 0 0 0 0];

internalField   nonuniform List<vector> 
15920
(
(0 -0 -0.008255919119)
(0 -0 -0.008404485627)
(0 -0 -0.008447660004)
(0 -0 -0.008321299703)
(0 -0 -0.008108729567)
(0 -0 -0.007868042731)
(0 -0 -0.007610208225)
(0 -0 -0.007336512181)
(0 -0 -0.007055517427)
(0 -0 -0.006778207221)
(0 -0 -0.00651229308)
(0 -0 -0.006262060812)
(0 -0 -0.006029971813)
(0 -0 -0.005817380697)
(0 -0 -0.005624623601)
(0 -0 -0.005451177815)
(0 -0 -0.005295955686)
(0 -0 -0.005157564529)
(0 -0 -0.005034476932)
(0 -0 -0.004925141063)
(0 -0 -0.004828056711)
(0 -0 -0.004741824366)
(0 -0 -0.004665171221)
(0 -0 -0.004596960597)
(0 -0 -0.004536189065)
(0 -0 -0.004481979054)
(0 -0 -0.004433567852)
(0 -0 -0.00439029458)
(0 -0 -0.004351586632)
(0 -0 -0.004316946487)
(0 -0 -0.004285939416)
(0 -0 -0.004258182254)
(0 -0 -0.004233332642)
(0 -0 -0.004211083499)
(0 -0 -0.00419115966)
(0 -0 -0.004173307301)
(0 -0 -0.004157286265)
(0 -0 -0.004142866958)
(0 -0 -0.004129828598)
(0 -0 -0.004117957921)
(0 -0 -0.004107049714)
(0 -0 -0.004096905833)
(0 -0 -0.004087325573)
(0 -0 -0.004078107261)
(0 -0 -0.004069054911)
(0 -0 -0.004059977818)
(0 -0 -0.004050688504)
(0 -0 -0.00404100301)
(0 -0 -0.004030741679)
(0 -0 -0.00401972987)
(0 -0 0.0003551627338)
(0 -0 -8.58157925e-06)
(0 -0 -0.0003968742569)
(0 -0 -0.0007986760423)
(0 -0 -0.001197155474)
(0 -0 -0.001576001979)
(0 -0 -0.001925979284)
(0 -0 -0.002241921445)
(0 -0 -0.002519756266)
(0 -0 -0.002757154194)
(0 -0 -0.002954416083)
(0 -0 -0.003113992891)
(0 -0 -0.003239490309)
(0 -0 -0.003334999592)
(0 -0 -0.003404763298)
(0 -0 -0.003452939903)
(0 -0 -0.003483407196)
(0 -0 -0.003499638459)
(0 -0 -0.003504654889)
(0 -0 -0.003501026416)
(0 -0 -0.003490897154)
(0 -0 -0.00347602418)
(0 -0 -0.003457823571)
(0 -0 -0.003437419261)
(0 -0 -0.00341569043)
(0 -0 -0.00339331434)
(0 -0 -0.003370804179)
(0 -0 -0.003348541861)
(0 -0 -0.003326805817)
(0 -0 -0.003305793995)
(0 -0 -0.003285642526)
(0 -0 -0.003266440673)
(0 -0 -0.003248242727)
(0 -0 -0.003231076124)
(0 -0 -0.003214947648)
(0 -0 -0.003199850434)
(0 -0 -0.003185767757)
(0 -0 -0.003172675444)
(0 -0 -0.003160543482)
(0 -0 -0.003149336703)
(0 -0 -0.003139014795)
(0 -0 -0.003129534577)
(0 -0 -0.003120853083)
(0 -0 -0.003112924587)
(0 -0 -0.003105699041)
(0 -0 -0.003099122522)
(0 -0 -0.003093137974)
(0 -0 -0.003087685404)
(0 -0 -0.003082701817)
(0 -0 -0.003078120997)
(0 -0 0.0001752073079)
(0 -0 0.0002542653203)
(0 -0 0.0003181841558)
(0 -0 0.0003458494098)
(0 -0 0.0003314711502)
(0 -0 0.0002771875628)
(0 -0 0.0001894441988)
(0 -0 7.613755794e-05)
(0 -0 -5.480462892e-05)
(0 -0 -0.0001960509511)
(0 -0 -0.0003412965346)
(0 -0 -0.0004855120398)
(0 -0 -0.0006249627209)
(0 -0 -0.0007570690566)
(0 -0 -0.0008802189833)
(0 -0 -0.0009935731574)
(0 -0 -0.001096876384)
(0 -0 -0.001190288452)
(0 -0 -0.001274244608)
(0 -0 -0.001349347666)
(0 -0 -0.001416288263)
(0 -0 -0.001475788401)
(0 -0 -0.001528563641)
(0 -0 -0.001575298535)
(0 -0 -0.001616633923)
(0 -0 -0.001653161015)
(0 -0 -0.001685419748)
(0 -0 -0.00171389992)
(0 -0 -0.001739044006)
(0 -0 -0.001761250827)
(0 -0 -0.001780879554)
(0 -0 -0.001798253693)
(0 -0 -0.001813664919)
(0 -0 -0.001827376314)
(0 -0 -0.001839625564)
(0 -0 -0.001850628321)
(0 -0 -0.001860580218)
(0 -0 -0.00186965887)
(0 -0 -0.001878025718)
(0 -0 -0.001885827544)
(0 -0 -0.001893197723)
(0 -0 -0.001900258019)
(0 -0 -0.001907119819)
(0 -0 -0.001913883078)
(0 -0 -0.001920637844)
(0 -0 -0.001927465334)
(0 -0 -0.001934438131)
(0 -0 -0.001941620432)
(0 -0 -0.001949068354)
(0 -0 -0.001956830116)
(0 -0 0.0001486548351)
(0 -0 0.0001515190707)
(0 -0 0.0001623988162)
(0 -0 0.0001815616543)
(0 -0 0.0002064380304)
(0 -0 0.0002328157714)
(0 -0 0.0002561813027)
(0 -0 0.0002729045566)
(0 -0 0.0002806673455)
(0 -0 0.0002784184971)
(0 -0 0.0002661648318)
(0 -0 0.0002446920633)
(0 -0 0.0002152636425)
(0 -0 0.0001793593696)
(0 -0 0.0001384860775)
(0 -0 9.405545035e-05)
(0 -0 4.731540412e-05)
(0 -0 -6.788403624e-07)
(0 -0 -4.906672297e-05)
(0 -0 -9.716821101e-05)
(0 -0 -0.0001444616875)
(0 -0 -0.0001905592346)
(0 -0 -0.0002351825978)
(0 -0 -0.0002781413251)
(0 -0 -0.0003193145371)
(0 -0 -0.000358635736)
(0 -0 -0.0003960805416)
(0 -0 -0.0004316570512)
(0 -0 -0.0004653983468)
(0 -0 -0.0004973566991)
(0 -0 -0.000527599091)
(0 -0 -0.00055620375)
(0 -0 -0.0005832574425)
(0 -0 -0.0006088533192)
(0 -0 -0.0006330892156)
(0 -0 -0.0006560663138)
(0 -0 -0.0006778879909)
(0 -0 -0.0006986588579)
(0 -0 -0.0007184839512)
(0 -0 -0.0007374680349)
(0 -0 -0.0007557150103)
(0 -0 -0.000773327348)
(0 -0 -0.0007904057093)
(0 -0 -0.0008070484006)
(0 -0 -0.0008233511421)
(0 -0 -0.0008394068096)
(0 -0 -0.0008553050357)
(0 -0 -0.0008711319259)
(0 -0 -0.0008869698497)
(0 -0 -0.0009028972126)
(0 -0 0.0001050102837)
(0 -0 0.0001059955578)
(0 -0 0.0001072628276)
(0 -0 0.0001093313883)
(0 -0 0.0001129715184)
(0 -0 0.0001188256598)
(0 -0 0.0001271244529)
(0 -0 0.0001376111125)
(0 -0 0.0001496336141)
(0 -0 0.000162303987)
(0 -0 0.0001746692898)
(0 -0 0.0001858582467)
(0 -0 0.0001951752601)
(0 -0 0.0002021374643)
(0 -0 0.0002064705612)
(0 -0 0.0002080809556)
(0 -0 0.0002070171681)
(0 -0 0.0002034296418)
(0 -0 0.0001975345958)
(0 -0 0.0001895846282)
(0 -0 0.0001798465621)
(0 -0 0.0001685858221)
(0 -0 0.0001560561521)
(0 -0 0.0001424934252)
(0 -0 0.0001281123956)
(0 -0 0.0001131054275)
(0 -0 9.764250361e-05)
(0 -0 8.187200386e-05)
(0 -0 6.592190236e-05)
(0 -0 4.990115604e-05)
(0 -0 3.390115086e-05)
(0 -0 1.799712947e-05)
(0 -0 2.249561699e-06)
(0 -0 -1.32945577e-05)
(0 -0 -2.860049812e-05)
(0 -0 -4.364465902e-05)
(0 -0 -5.841352396e-05)
(0 -0 -7.290272385e-05)
(0 -0 -8.711607031e-05)
(0 -0 -0.0001010647199)
(0 -0 -0.0001147669352)
(0 -0 -0.0001282429568)
(0 -0 -0.0001415199254)
(0 -0 -0.0001546316813)
(0 -0 -0.000167616488)
(0 -0 -0.0001805161062)
(0 -0 -0.0001933752553)
(0 -0 -0.0002062411588)
(0 -0 -0.0002191631165)
(0 -0 -0.0002321921305)
(0 -0 8.160800914e-05)
(0 -0 8.196646647e-05)
(0 -0 8.240235752e-05)
(0 -0 8.286338287e-05)
(0 -0 8.335598226e-05)
(0 -0 8.396706529e-05)
(0 -0 8.485566013e-05)
(0 -0 8.621434647e-05)
(0 -0 8.82164068e-05)
(0 -0 9.097007648e-05)
(0 -0 9.449421995e-05)
(0 -0 9.871810678e-05)
(0 -0 0.0001034988134)
(0 -0 0.0001086468608)
(0 -0 0.0001139525599)
(0 -0 0.0001192085841)
(0 -0 0.0001242265228)
(0 -0 0.0001288469686)
(0 -0 0.0001329439777)
(0 -0 0.0001364253582)
(0 -0 0.000139230257)
(0 -0 0.0001413252615)
(0 -0 0.0001426999038)
(0 -0 0.0001433621637)
(0 -0 0.0001433343165)
(0 -0 0.0001426492903)
(0 -0 0.0001413475692)
(0 -0 0.0001394746232)
(0 -0 0.0001370788087)
(0 -0 0.0001342096759)
(0 -0 0.0001309166161)
(0 -0 0.0001272477948)
(0 -0 0.0001232493214)
(0 -0 0.0001189646262)
(0 -0 0.0001144339176)
(0 -0 0.0001096939598)
(0 -0 0.0001047776378)
(0 -0 9.971291717e-05)
(0 -0 9.4524988e-05)
(0 -0 8.923523606e-05)
(0 -0 8.38615216e-05)
(0 -0 7.841339467e-05)
(0 -0 7.289864565e-05)
(0 -0 6.732330562e-05)
(0 -0 6.1689919e-05)
(0 -0 5.599738586e-05)
(0 -0 5.024112444e-05)
(0 -0 4.441321923e-05)
(0 -0 3.850253302e-05)
(0 -0 3.249483716e-05)
(0 -0 6.513947175e-05)
(0 -0 6.540228234e-05)
(0 -0 6.572454831e-05)
(0 -0 6.608608834e-05)
(0 -0 6.64703719e-05)
(0 -0 6.685797109e-05)
(0 -0 6.72321112e-05)
(0 -0 6.758954139e-05)
(0 -0 6.794721298e-05)
(0 -0 6.834032107e-05)
(0 -0 6.881439604e-05)
(0 -0 6.941588585e-05)
(0 -0 7.018386269e-05)
(0 -0 7.114407493e-05)
(0 -0 7.230595219e-05)
(0 -0 7.366252964e-05)
(0 -0 7.519259612e-05)
(0 -0 7.686408479e-05)
(0 -0 7.863783933e-05)
(0 -0 8.047116418e-05)
(0 -0 8.232083121e-05)
(0 -0 8.414541197e-05)
(0 -0 8.590693686e-05)
(0 -0 8.757195797e-05)
(0 -0 8.911212498e-05)
(0 -0 9.050438681e-05)
(0 -0 9.173091857e-05)
(0 -0 9.277885748e-05)
(0 -0 9.36399142e-05)
(0 -0 9.430990882e-05)
(0 -0 9.478827998e-05)
(0 -0 9.507756107e-05)
(0 -0 9.518291364e-05)
(0 -0 9.5111758e-05)
(0 -0 9.487192287e-05)
(0 -0 9.447338182e-05)
(0 -0 9.392753221e-05)
(0 -0 9.324744767e-05)
(0 -0 9.244518012e-05)
(0 -0 9.153241559e-05)
(0 -0 9.052127676e-05)
(0 -0 8.9419251e-05)
(0 -0 8.82343733e-05)
(0 -0 8.697602475e-05)
(0 -0 8.565315256e-05)
(0 -0 8.427366259e-05)
(0 -0 8.284421373e-05)
(0 -0 8.137011642e-05)
(0 -0 7.98552418e-05)
(0 -0 7.830196701e-05)
(0 -0 5.26203076e-05)
(0 -0 5.284114527e-05)
(0 -0 5.309937784e-05)
(0 -0 5.338084931e-05)
(0 -0 5.368017362e-05)
(0 -0 5.399181868e-05)
(0 -0 5.430795168e-05)
(0 -0 5.461943149e-05)
(0 -0 5.491775334e-05)
(0 -0 5.519652561e-05)
(0 -0 5.545245882e-05)
(0 -0 5.568611429e-05)
(0 -0 5.590212697e-05)
(0 -0 5.610855996e-05)
(0 -0 5.63155323e-05)
(0 -0 5.653360724e-05)
(0 -0 5.67723711e-05)
(0 -0 5.703940601e-05)
(0 -0 5.733968966e-05)
(0 -0 5.76753779e-05)
(0 -0 5.804589525e-05)
(0 -0 5.844824688e-05)
(0 -0 5.887746577e-05)
(0 -0 5.932711952e-05)
(0 -0 5.978981876e-05)
(0 -0 6.025768811e-05)
(0 -0 6.07227766e-05)
(0 -0 6.117739605e-05)
(0 -0 6.161439049e-05)
(0 -0 6.202732512e-05)
(0 -0 6.241066172e-05)
(0 -0 6.27597673e-05)
(0 -0 6.307062871e-05)
(0 -0 6.334060464e-05)
(0 -0 6.356953718e-05)
(0 -0 6.375724971e-05)
(0 -0 6.390431111e-05)
(0 -0 6.401316856e-05)
(0 -0 6.408575811e-05)
(0 -0 6.41243665e-05)
(0 -0 6.413116906e-05)
(0 -0 6.411291147e-05)
(0 -0 6.407461434e-05)
(0 -0 6.401943007e-05)
(0 -0 6.395020499e-05)
(0 -0 6.386972703e-05)
(0 -0 6.378069427e-05)
(0 -0 6.36856309e-05)
(0 -0 6.358680908e-05)
(0 -0 6.348615632e-05)
(0 -0 4.297382181e-05)
(0 -0 4.316761369e-05)
(0 -0 4.338313016e-05)
(0 -0 4.360669136e-05)
(0 -0 4.383419474e-05)
(0 -0 4.406282537e-05)
(0 -0 4.428956517e-05)
(0 -0 4.45114465e-05)
(0 -0 4.47257575e-05)
(0 -0 4.49297264e-05)
(0 -0 4.512021209e-05)
(0 -0 4.529388114e-05)
(0 -0 4.544775222e-05)
(0 -0 4.557971142e-05)
(0 -0 4.568876687e-05)
(0 -0 4.577506046e-05)
(0 -0 4.583974258e-05)
(0 -0 4.58847781e-05)
(0 -0 4.591270823e-05)
(0 -0 4.592638953e-05)
(0 -0 4.592874277e-05)
(0 -0 4.592254394e-05)
(0 -0 4.591027468e-05)
(0 -0 4.589403311e-05)
(0 -0 4.587549586e-05)
(0 -0 4.585591805e-05)
(0 -0 4.583616073e-05)
(0 -0 4.581672892e-05)
(0 -0 4.57978334e-05)
(0 -0 4.577942802e-05)
(0 -0 4.576100584e-05)
(0 -0 4.574232546e-05)
(0 -0 4.572349985e-05)
(0 -0 4.570413632e-05)
(0 -0 4.568532514e-05)
(0 -0 4.566760358e-05)
(0 -0 4.56511702e-05)
(0 -0 4.56353502e-05)
(0 -0 4.562095071e-05)
(0 -0 4.560922828e-05)
(0 -0 4.560161174e-05)
(0 -0 4.559976627e-05)
(0 -0 4.560547093e-05)
(0 -0 4.562052991e-05)
(0 -0 4.564672131e-05)
(0 -0 4.568577582e-05)
(0 -0 4.573936866e-05)
(0 -0 4.580910352e-05)
(0 -0 4.589649341e-05)
(0 -0 4.600293625e-05)
(0 -0 3.534072666e-05)
(0 -0 3.552439507e-05)
(0 -0 3.571987706e-05)
(0 -0 3.591306483e-05)
(0 -0 3.610005019e-05)
(0 -0 3.627836286e-05)
(0 -0 3.644567047e-05)
(0 -0 3.660014502e-05)
(0 -0 3.674066453e-05)
(0 -0 3.686643507e-05)
(0 -0 3.697652607e-05)
(0 -0 3.706976156e-05)
(0 -0 3.714491117e-05)
(0 -0 3.72009072e-05)
(0 -0 3.723694149e-05)
(0 -0 3.725247471e-05)
(0 -0 3.724724097e-05)
(0 -0 3.722127694e-05)
(0 -0 3.717495198e-05)
(0 -0 3.710897139e-05)
(0 -0 3.702434969e-05)
(0 -0 3.69223676e-05)
(0 -0 3.68045264e-05)
(0 -0 3.667250453e-05)
(0 -0 3.65281161e-05)
(0 -0 3.637326764e-05)
(0 -0 3.620990671e-05)
(0 -0 3.604002003e-05)
(0 -0 3.586527827e-05)
(0 -0 3.568744556e-05)
(0 -0 3.550847166e-05)
(0 -0 3.533001922e-05)
(0 -0 3.515408164e-05)
(0 -0 3.498241238e-05)
(0 -0 3.481528052e-05)
(0 -0 3.465382094e-05)
(0 -0 3.449959909e-05)
(0 -0 3.435422531e-05)
(0 -0 3.421932455e-05)
(0 -0 3.409652236e-05)
(0 -0 3.398741088e-05)
(0 -0 3.38935267e-05)
(0 -0 3.381633617e-05)
(0 -0 3.375723002e-05)
(0 -0 3.371752384e-05)
(0 -0 3.369845205e-05)
(0 -0 3.370116005e-05)
(0 -0 3.372669579e-05)
(0 -0 3.377600343e-05)
(0 -0 3.384992021e-05)
(0 -0 2.917451049e-05)
(0 -0 2.935773647e-05)
(0 -0 2.954627074e-05)
(0 -0 2.97251432e-05)
(0 -0 2.989043219e-05)
(0 -0 3.003981782e-05)
(0 -0 3.017128495e-05)
(0 -0 3.028348423e-05)
(0 -0 3.037586203e-05)
(0 -0 3.044822747e-05)
(0 -0 3.050028565e-05)
(0 -0 3.053155549e-05)
(0 -0 3.054157432e-05)
(0 -0 3.05300948e-05)
(0 -0 3.049713175e-05)
(0 -0 3.044290792e-05)
(0 -0 3.03677992e-05)
(0 -0 3.027232272e-05)
(0 -0 3.015714972e-05)
(0 -0 3.002311416e-05)
(0 -0 2.987120916e-05)
(0 -0 2.970258005e-05)
(0 -0 2.951852227e-05)
(0 -0 2.932048413e-05)
(0 -0 2.911006052e-05)
(0 -0 2.88890099e-05)
(0 -0 2.865910019e-05)
(0 -0 2.842215659e-05)
(0 -0 2.818031386e-05)
(0 -0 2.79356207e-05)
(0 -0 2.769032607e-05)
(0 -0 2.744632063e-05)
(0 -0 2.720503154e-05)
(0 -0 2.696820594e-05)
(0 -0 2.673765057e-05)
(0 -0 2.651520554e-05)
(0 -0 2.630274227e-05)
(0 -0 2.610213154e-05)
(0 -0 2.591520743e-05)
(0 -0 2.574373432e-05)
(0 -0 2.558937802e-05)
(0 -0 2.545368402e-05)
(0 -0 2.533806321e-05)
(0 -0 2.524378556e-05)
(0 -0 2.51719806e-05)
(0 -0 2.512363918e-05)
(0 -0 2.50996138e-05)
(0 -0 2.510061436e-05)
(0 -0 2.512720193e-05)
(0 -0 2.517978773e-05)
(0 -0 2.411760581e-05)
(0 -0 2.430621422e-05)
(0 -0 2.449567559e-05)
(0 -0 2.466988644e-05)
(0 -0 2.482477323e-05)
(0 -0 2.495804622e-05)
(0 -0 2.506784978e-05)
(0 -0 2.515312553e-05)
(0 -0 2.521369247e-05)
(0 -0 2.524975034e-05)
(0 -0 2.526137626e-05)
(0 -0 2.524844539e-05)
(0 -0 2.521085746e-05)
(0 -0 2.514875052e-05)
(0 -0 2.506255007e-05)
(0 -0 2.495290733e-05)
(0 -0 2.482063459e-05)
(0 -0 2.466668386e-05)
(0 -0 2.449215086e-05)
(0 -0 2.42982744e-05)
(0 -0 2.408642434e-05)
(0 -0 2.385808933e-05)
(0 -0 2.36148713e-05)
(0 -0 2.335849163e-05)
(0 -0 2.309080303e-05)
(0 -0 2.281359462e-05)
(0 -0 2.252895407e-05)
(0 -0 2.223906687e-05)
(0 -0 2.19463233e-05)
(0 -0 2.165290838e-05)
(0 -0 2.136062849e-05)
(0 -0 2.107143682e-05)
(0 -0 2.078729318e-05)
(0 -0 2.051014934e-05)
(0 -0 2.024196812e-05)
(0 -0 1.998472951e-05)
(0 -0 1.97404162e-05)
(0 -0 1.951098497e-05)
(0 -0 1.929832867e-05)
(0 -0 1.910423647e-05)
(0 -0 1.893035983e-05)
(0 -0 1.877818905e-05)
(0 -0 1.864904059e-05)
(0 -0 1.854405167e-05)
(0 -0 1.846417927e-05)
(0 -0 1.841020149e-05)
(0 -0 1.838271989e-05)
(0 -0 1.838215944e-05)
(0 -0 1.840876577e-05)
(0 -0 1.846260484e-05)
(0 -0 1.99194453e-05)
(0 -0 2.011738881e-05)
(0 -0 2.031302549e-05)
(0 -0 2.048891606e-05)
(0 -0 2.0640735e-05)
(0 -0 2.076612861e-05)
(0 -0 2.086328273e-05)
(0 -0 2.093129658e-05)
(0 -0 2.097023476e-05)
(0 -0 2.098057699e-05)
(0 -0 2.096267472e-05)
(0 -0 2.091666657e-05)
(0 -0 2.084272124e-05)
(0 -0 2.074126445e-05)
(0 -0 2.06130283e-05)
(0 -0 2.045898242e-05)
(0 -0 2.028026342e-05)
(0 -0 2.00781522e-05)
(0 -0 1.985407814e-05)
(0 -0 1.960961804e-05)
(0 -0 1.934648252e-05)
(0 -0 1.906649793e-05)
(0 -0 1.877161563e-05)
(0 -0 1.846383542e-05)
(0 -0 1.8145238e-05)
(0 -0 1.781818608e-05)
(0 -0 1.748515137e-05)
(0 -0 1.71486925e-05)
(0 -0 1.681103668e-05)
(0 -0 1.647441677e-05)
(0 -0 1.614109722e-05)
(0 -0 1.581327865e-05)
(0 -0 1.549309603e-05)
(0 -0 1.51826583e-05)
(0 -0 1.488407119e-05)
(0 -0 1.459943957e-05)
(0 -0 1.433085108e-05)
(0 -0 1.4080343e-05)
(0 -0 1.384985911e-05)
(0 -0 1.364120583e-05)
(0 -0 1.345601545e-05)
(0 -0 1.32957216e-05)
(0 -0 1.316154752e-05)
(0 -0 1.305450331e-05)
(0 -0 1.297538644e-05)
(0 -0 1.292478264e-05)
(0 -0 1.290306726e-05)
(0 -0 1.291040773e-05)
(0 -0 1.29467667e-05)
(0 -0 1.301190797e-05)
(0 -0 1.640050969e-05)
(0 -0 1.661056863e-05)
(0 -0 1.681601157e-05)
(0 -0 1.699790351e-05)
(0 -0 1.71515972e-05)
(0 -0 1.727461223e-05)
(0 -0 1.736510185e-05)
(0 -0 1.742223977e-05)
(0 -0 1.744625284e-05)
(0 -0 1.743782147e-05)
(0 -0 1.739749754e-05)
(0 -0 1.732561559e-05)
(0 -0 1.722255337e-05)
(0 -0 1.70889728e-05)
(0 -0 1.692586894e-05)
(0 -0 1.673449199e-05)
(0 -0 1.651626918e-05)
(0 -0 1.627277946e-05)
(0 -0 1.600575835e-05)
(0 -0 1.571709659e-05)
(0 -0 1.540882381e-05)
(0 -0 1.508310821e-05)
(0 -0 1.474211902e-05)
(0 -0 1.438824345e-05)
(0 -0 1.402403634e-05)
(0 -0 1.365227689e-05)
(0 -0 1.327558208e-05)
(0 -0 1.289652321e-05)
(0 -0 1.251774236e-05)
(0 -0 1.21418314e-05)
(0 -0 1.1771298e-05)
(0 -0 1.140855563e-05)
(0 -0 1.105594191e-05)
(0 -0 1.071575033e-05)
(0 -0 1.039025157e-05)
(0 -0 1.008169581e-05)
(0 -0 9.792293567e-06)
(0 -0 9.524178072e-06)
(0 -0 9.279358247e-06)
(0 -0 9.05967199e-06)
(0 -0 8.866747183e-06)
(0 -0 8.701975407e-06)
(0 -0 8.566499697e-06)
(0 -0 8.461213178e-06)
(0 -0 8.38676236e-06)
(0 -0 8.343550565e-06)
(0 -0 8.331741879e-06)
(0 -0 8.351267593e-06)
(0 -0 8.401833879e-06)
(0 -0 8.482930192e-06)
(0 -0 1.342977033e-05)
(0 -0 1.365397824e-05)
(0 -0 1.38718334e-05)
(0 -0 1.406277612e-05)
(0 -0 1.422178737e-05)
(0 -0 1.434621802e-05)
(0 -0 1.443414096e-05)
(0 -0 1.448475172e-05)
(0 -0 1.449838575e-05)
(0 -0 1.447587168e-05)
(0 -0 1.441791187e-05)
(0 -0 1.432499073e-05)
(0 -0 1.419765392e-05)
(0 -0 1.403676363e-05)
(0 -0 1.384354667e-05)
(0 -0 1.361950708e-05)
(0 -0 1.336634021e-05)
(0 -0 1.308590527e-05)
(0 -0 1.278022926e-05)
(0 -0 1.245151133e-05)
(0 -0 1.210208181e-05)
(0 -0 1.173435789e-05)
(0 -0 1.135096364e-05)
(0 -0 1.095468541e-05)
(0 -0 1.054844965e-05)
(0 -0 1.013505311e-05)
(0 -0 9.71742805e-06)
(0 -0 9.298561652e-06)
(0 -0 8.881405621e-06)
(0 -0 8.468832983e-06)
(0 -0 8.063609178e-06)
(0 -0 7.668387902e-06)
(0 -0 7.28572943e-06)
(0 -0 6.91812899e-06)
(0 -0 6.568037623e-06)
(0 -0 6.237863044e-06)
(0 -0 5.929947672e-06)
(0 -0 5.646527753e-06)
(0 -0 5.389682953e-06)
(0 -0 5.16128717e-06)
(0 -0 4.962968459e-06)
(0 -0 4.796081984e-06)
(0 -0 4.661696925e-06)
(0 -0 4.560595645e-06)
(0 -0 4.493279892e-06)
(0 -0 4.45997823e-06)
(0 -0 4.460653765e-06)
(0 -0 4.49501543e-06)
(0 -0 4.562531404e-06)
(0 -0 4.662439009e-06)
(0 -0 1.090992678e-05)
(0 -0 1.114983361e-05)
(0 -0 1.138204068e-05)
(0 -0 1.158426094e-05)
(0 -0 1.175106606e-05)
(0 -0 1.187960876e-05)
(0 -0 1.196784899e-05)
(0 -0 1.201496925e-05)
(0 -0 1.202137842e-05)
(0 -0 1.198801934e-05)
(0 -0 1.191571217e-05)
(0 -0 1.180506074e-05)
(0 -0 1.16567513e-05)
(0 -0 1.147182235e-05)
(0 -0 1.125171151e-05)
(0 -0 1.099815857e-05)
(0 -0 1.071311219e-05)
(0 -0 1.039869896e-05)
(0 -0 1.005723724e-05)
(0 -0 9.691191049e-06)
(0 -0 9.303184084e-06)
(0 -0 8.896041149e-06)
(0 -0 8.472798145e-06)
(0 -0 8.036467842e-06)
(0 -0 7.590111904e-06)
(0 -0 7.136944874e-06)
(0 -0 6.680262908e-06)
(0 -0 6.223382592e-06)
(0 -0 5.769576664e-06)
(0 -0 5.322023732e-06)
(0 -0 4.883777159e-06)
(0 -0 4.457758316e-06)
(0 -0 4.046770177e-06)
(0 -0 3.653520348e-06)
(0 -0 3.280639405e-06)
(0 -0 2.93068282e-06)
(0 -0 2.606111344e-06)
(0 -0 2.309251949e-06)
(0 -0 2.042247359e-06)
(0 -0 1.807005118e-06)
(0 -0 1.605155404e-06)
(0 -0 1.438021987e-06)
(0 -0 1.306607008e-06)
(0 -0 1.211589315e-06)
(0 -0 1.153333971e-06)
(0 -0 1.131905947e-06)
(0 -0 1.147081484e-06)
(0 -0 1.198358762e-06)
(0 -0 1.284972505e-06)
(0 -0 1.40590939e-06)
(0 -0 8.767780356e-06)
(0 -0 9.02460521e-06)
(0 -0 9.27264924e-06)
(0 -0 9.487819293e-06)
(0 -0 9.664248916e-06)
(0 -0 9.798871429e-06)
(0 -0 9.889511091e-06)
(0 -0 9.935313575e-06)
(0 -0 9.936737901e-06)
(0 -0 9.894818664e-06)
(0 -0 9.810472134e-06)
(0 -0 9.684401143e-06)
(0 -0 9.517414234e-06)
(0 -0 9.310710474e-06)
(0 -0 9.065925116e-06)
(0 -0 8.785022425e-06)
(0 -0 8.470193949e-06)
(0 -0 8.123831411e-06)
(0 -0 7.74848411e-06)
(0 -0 7.346935949e-06)
(0 -0 6.92217824e-06)
(0 -0 6.477386949e-06)
(0 -0 6.015736634e-06)
(0 -0 5.540544027e-06)
(0 -0 5.055291657e-06)
(0 -0 4.563574986e-06)
(0 -0 4.069056273e-06)
(0 -0 3.575411808e-06)
(0 -0 3.086262032e-06)
(0 -0 2.605108197e-06)
(0 -0 2.135293534e-06)
(0 -0 1.679993243e-06)
(0 -0 1.24222918e-06)
(0 -0 8.248964248e-07)
(0 -0 4.307858923e-07)
(0 -0 6.259049388e-08)
(0 -0 -2.771116884e-07)
(0 -0 -5.858963025e-07)
(0 -0 -8.615462132e-07)
(0 -0 -1.102107779e-06)
(0 -0 -1.305937855e-06)
(0 -0 -1.47173485e-06)
(0 -0 -1.598554213e-06)
(0 -0 -1.685810772e-06)
(0 -0 -1.733268589e-06)
(0 -0 -1.741022461e-06)
(0 -0 -1.709480718e-06)
(0 -0 -1.639354138e-06)
(0 -0 -1.53164434e-06)
(0 -0 -1.387625938e-06)
(0 -0 6.9476852e-06)
(0 -0 7.222403568e-06)
(0 -0 7.487443211e-06)
(0 -0 7.716845608e-06)
(0 -0 7.904282982e-06)
(0 -0 8.04645356e-06)
(0 -0 8.141029864e-06)
(0 -0 8.187104208e-06)
(0 -0 8.18516986e-06)
(0 -0 8.136337457e-06)
(0 -0 8.041604095e-06)
(0 -0 7.901757573e-06)
(0 -0 7.717716961e-06)
(0 -0 7.490832553e-06)
(0 -0 7.222928827e-06)
(0 -0 6.916186302e-06)
(0 -0 6.573027277e-06)
(0 -0 6.19605535e-06)
(0 -0 5.788124834e-06)
(0 -0 5.352330017e-06)
(0 -0 4.891939083e-06)
(0 -0 4.410324168e-06)
(0 -0 3.911054787e-06)
(0 -0 3.397868758e-06)
(0 -0 2.874661148e-06)
(0 -0 2.34544454e-06)
(0 -0 1.814283769e-06)
(0 -0 1.285215958e-06)
(0 -0 7.62169578e-07)
(0 -0 2.489031514e-07)
(0 -0 -2.510225782e-07)
(0 -0 -7.342380323e-07)
(0 -0 -1.197534211e-06)
(0 -0 -1.637826351e-06)
(0 -0 -2.052130615e-06)
(0 -0 -2.437565527e-06)
(0 -0 -2.791380694e-06)
(0 -0 -3.111007561e-06)
(0 -0 -3.3941219e-06)
(0 -0 -3.638706066e-06)
(0 -0 -3.843099189e-06)
(0 -0 -4.006027051e-06)
(0 -0 -4.126611705e-06)
(0 -0 -4.204368121e-06)
(0 -0 -4.239193191e-06)
(0 -0 -4.231348277e-06)
(0 -0 -4.181439419e-06)
(0 -0 -4.090401821e-06)
(0 -0 -3.95948681e-06)
(0 -0 -3.790242859e-06)
(0 -0 5.406959451e-06)
(0 -0 5.70035031e-06)
(0 -0 5.983295941e-06)
(0 -0 6.227926398e-06)
(0 -0 6.427432544e-06)
(0 -0 6.578265548e-06)
(0 -0 6.677934642e-06)
(0 -0 6.725467174e-06)
(0 -0 6.721378845e-06)
(0 -0 6.666844367e-06)
(0 -0 6.562930522e-06)
(0 -0 6.410501209e-06)
(0 -0 6.210579548e-06)
(0 -0 5.964660548e-06)
(0 -0 5.674748981e-06)
(0 -0 5.343219162e-06)
(0 -0 4.972688946e-06)
(0 -0 4.566015173e-06)
(0 -0 4.126326364e-06)
(0 -0 3.656956808e-06)
(0 -0 3.161474432e-06)
(0 -0 2.643689879e-06)
(0 -0 2.107617052e-06)
(0 -0 1.557435394e-06)
(0 -0 9.974455595e-07)
(0 -0 4.320153762e-07)
(0 -0 -1.344849869e-07)
(0 -0 -6.977521598e-07)
(0 -0 -1.253613383e-06)
(0 -0 -1.79807292e-06)
(0 -0 -2.327331175e-06)
(0 -0 -2.837774715e-06)
(0 -0 -3.325946554e-06)
(0 -0 -3.788513725e-06)
(0 -0 -4.222250667e-06)
(0 -0 -4.624050684e-06)
(0 -0 -4.990966881e-06)
(0 -0 -5.32027398e-06)
(0 -0 -5.609537677e-06)
(0 -0 -5.856679226e-06)
(0 -0 -6.060025684e-06)
(0 -0 -6.218338534e-06)
(0 -0 -6.33081876e-06)
(0 -0 -6.397096207e-06)
(0 -0 -6.417213929e-06)
(0 -0 -6.391611135e-06)
(0 -0 -6.321104021e-06)
(0 -0 -6.206867579e-06)
(0 -0 -6.050419297e-06)
(0 -0 -5.853596905e-06)
(0 -0 4.112593125e-06)
(0 -0 4.42526388e-06)
(0 -0 4.726825924e-06)
(0 -0 4.98745787e-06)
(0 -0 5.199851266e-06)
(0 -0 5.360200593e-06)
(0 -0 5.46584349e-06)
(0 -0 5.515733589e-06)
(0 -0 5.510399124e-06)
(0 -0 5.451069327e-06)
(0 -0 5.33887346e-06)
(0 -0 5.174746823e-06)
(0 -0 4.959810638e-06)
(0 -0 4.69569226e-06)
(0 -0 4.384548237e-06)
(0 -0 4.028921148e-06)
(0 -0 3.6316394e-06)
(0 -0 3.195816187e-06)
(0 -0 2.724827163e-06)
(0 -0 2.222392001e-06)
(0 -0 1.692537965e-06)
(0 -0 1.139523361e-06)
(0 -0 5.677598582e-07)
(0 -0 -1.824537099e-08)
(0 -0 -6.139239068e-07)
(0 -0 -1.214667521e-06)
(0 -0 -1.815854905e-06)
(0 -0 -2.412896324e-06)
(0 -0 -3.001294791e-06)
(0 -0 -3.576707852e-06)
(0 -0 -4.134989436e-06)
(0 -0 -4.672199591e-06)
(0 -0 -5.18458577e-06)
(0 -0 -5.66855297e-06)
(0 -0 -6.12064474e-06)
(0 -0 -6.537551918e-06)
(0 -0 -6.916154305e-06)
(0 -0 -7.253587659e-06)
(0 -0 -7.547319491e-06)
(0 -0 -7.795217171e-06)
(0 -0 -7.995598462e-06)
(0 -0 -8.147260062e-06)
(0 -0 -8.249482345e-06)
(0 -0 -8.302015214e-06)
(0 -0 -8.30505783e-06)
(0 -0 -8.259240267e-06)
(0 -0 -8.165604676e-06)
(0 -0 -8.025583284e-06)
(0 -0 -7.840975345e-06)
(0 -0 -7.613920341e-06)
(0 -0 3.038830765e-06)
(0 -0 3.371232337e-06)
(0 -0 3.691952493e-06)
(0 -0 3.969178333e-06)
(0 -0 4.195085812e-06)
(0 -0 4.365604669e-06)
(0 -0 4.477895134e-06)
(0 -0 4.530829938e-06)
(0 -0 4.524941567e-06)
(0 -0 4.461506934e-06)
(0 -0 4.341712971e-06)
(0 -0 4.166559207e-06)
(0 -0 3.937249186e-06)
(0 -0 3.655514062e-06)
(0 -0 3.323643471e-06)
(0 -0 2.944364654e-06)
(0 -0 2.520750122e-06)
(0 -0 2.056197914e-06)
(0 -0 1.554501333e-06)
(0 -0 1.01981514e-06)
(0 -0 4.565595108e-07)
(0 -0 -1.306913436e-07)
(0 -0 -7.37281322e-07)
(0 -0 -1.358487277e-06)
(0 -0 -1.989498013e-06)
(0 -0 -2.625398541e-06)
(0 -0 -3.261193137e-06)
(0 -0 -3.891875303e-06)
(0 -0 -4.51252597e-06)
(0 -0 -5.118406592e-06)
(0 -0 -5.705017094e-06)
(0 -0 -6.268107349e-06)
(0 -0 -6.803652106e-06)
(0 -0 -7.307813155e-06)
(0 -0 -7.776914847e-06)
(0 -0 -8.207451033e-06)
(0 -0 -8.596128904e-06)
(0 -0 -8.939942125e-06)
(0 -0 -9.236255126e-06)
(0 -0 -9.482877809e-06)
(0 -0 -9.67811775e-06)
(0 -0 -9.82080722e-06)
(0 -0 -9.91030707e-06)
(0 -0 -9.946491284e-06)
(0 -0 -9.92972429e-06)
(0 -0 -9.860841703e-06)
(0 -0 -9.741131241e-06)
(0 -0 -9.572306249e-06)
(0 -0 -9.3564718e-06)
(0 -0 -9.096089355e-06)
(0 -0 2.165355817e-06)
(0 -0 2.517798364e-06)
(0 -0 2.858071869e-06)
(0 -0 3.152329938e-06)
(0 -0 3.392218794e-06)
(0 -0 3.573397292e-06)
(0 -0 3.692844467e-06)
(0 -0 3.749346811e-06)
(0 -0 3.743435256e-06)
(0 -0 3.676428894e-06)
(0 -0 3.549563657e-06)
(0 -0 3.363885945e-06)
(0 -0 3.120656603e-06)
(0 -0 2.821699401e-06)
(0 -0 2.46946433e-06)
(0 -0 2.066913554e-06)
(0 -0 1.61742648e-06)
(0 -0 1.124794692e-06)
(0 -0 5.931917294e-07)
(0 -0 2.709118085e-08)
(0 -0 -5.688436154e-07)
(0 -0 -1.189836441e-06)
(0 -0 -1.831008713e-06)
(0 -0 -2.487343111e-06)
(0 -0 -3.153648388e-06)
(0 -0 -3.824567183e-06)
(0 -0 -4.49464163e-06)
(0 -0 -5.158422387e-06)
(0 -0 -5.810589014e-06)
(0 -0 -6.446047378e-06)
(0 -0 -7.059980691e-06)
(0 -0 -7.647850433e-06)
(0 -0 -8.205362544e-06)
(0 -0 -8.728425292e-06)
(0 -0 -9.213125766e-06)
(0 -0 -9.655741839e-06)
(0 -0 -1.005279222e-05)
(0 -0 -1.040111577e-05)
(0 -0 -1.069796305e-05)
(0 -0 -1.094107782e-05)
(0 -0 -1.112875184e-05)
(0 -0 -1.12598499e-05)
(0 -0 -1.133381347e-05)
(0 -0 -1.135064827e-05)
(0 -0 -1.131090097e-05)
(0 -0 -1.121563461e-05)
(0 -0 -1.106640442e-05)
(0 -0 -1.086522756e-05)
(0 -0 -1.061454361e-05)
(0 -0 -1.0317169e-05)
(0 -0 1.475896212e-06)
(0 -0 1.848576072e-06)
(0 -0 2.208671109e-06)
(0 -0 2.520262978e-06)
(0 -0 2.774459735e-06)
(0 -0 2.966647267e-06)
(0 -0 3.093622262e-06)
(0 -0 3.154082229e-06)
(0 -0 3.148552029e-06)
(0 -0 3.078384556e-06)
(0 -0 2.944849318e-06)
(0 -0 2.749020818e-06)
(0 -0 2.492212804e-06)
(0 -0 2.17637299e-06)
(0 -0 1.804160833e-06)
(0 -0 1.378829746e-06)
(0 -0 9.041052449e-07)
(0 -0 3.840995712e-07)
(0 -0 -1.767564118e-07)
(0 -0 -7.737871764e-07)
(0 -0 -1.402131434e-06)
(0 -0 -2.056758579e-06)
(0 -0 -2.732446251e-06)
(0 -0 -3.423752619e-06)
(0 -0 -4.125020133e-06)
(0 -0 -4.830427169e-06)
(0 -0 -5.534082142e-06)
(0 -0 -6.230140809e-06)
(0 -0 -6.912921473e-06)
(0 -0 -7.576993563e-06)
(0 -0 -8.217222304e-06)
(0 -0 -8.82876632e-06)
(0 -0 -9.407042117e-06)
(0 -0 -9.947681878e-06)
(0 -0 -1.044651264e-05)
(0 -0 -1.089957447e-05)
(0 -0 -1.13031786e-05)
(0 -0 -1.16539938e-05)
(0 -0 -1.194914342e-05)
(0 -0 -1.218629223e-05)
(0 -0 -1.236370519e-05)
(0 -0 -1.248027354e-05)
(0 -0 -1.2535519e-05)
(0 -0 -1.252958604e-05)
(0 -0 -1.246322103e-05)
(0 -0 -1.233773906e-05)
(0 -0 -1.215498931e-05)
(0 -0 -1.191731883e-05)
(0 -0 -1.162753026e-05)
(0 -0 -1.128883927e-05)
(0 -0 9.571322863e-07)
(0 -0 1.350183496e-06)
(0 -0 1.730259887e-06)
(0 -0 2.05935784e-06)
(0 -0 2.328055553e-06)
(0 -0 2.531471868e-06)
(0 -0 2.666223726e-06)
(0 -0 2.730918606e-06)
(0 -0 2.726069416e-06)
(0 -0 2.653051198e-06)
(0 -0 2.513153838e-06)
(0 -0 2.307476715e-06)
(0 -0 2.037415565e-06)
(0 -0 1.705075258e-06)
(0 -0 1.313360334e-06)
(0 -0 8.658192513e-07)
(0 -0 3.664496861e-07)
(0 -0 -1.804171055e-07)
(0 -0 -7.701648334e-07)
(0 -0 -1.39791216e-06)
(0 -0 -2.058520251e-06)
(0 -0 -2.746591863e-06)
(0 -0 -3.45647112e-06)
(0 -0 -4.182258118e-06)
(0 -0 -4.917848769e-06)
(0 -0 -5.657002718e-06)
(0 -0 -6.393436132e-06)
(0 -0 -7.120930717e-06)
(0 -0 -7.833442685e-06)
(0 -0 -8.525189746e-06)
(0 -0 -9.190697158e-06)
(0 -0 -9.824797291e-06)
(0 -0 -1.042259522e-05)
(0 -0 -1.097942687e-05)
(0 -0 -1.149083936e-05)
(0 -0 -1.19526139e-05)
(0 -0 -1.236083271e-05)
(0 -0 -1.271197409e-05)
(0 -0 -1.300301448e-05)
(0 -0 -1.323151983e-05)
(0 -0 -1.339571087e-05)
(0 -0 -1.349449585e-05)
(0 -0 -1.352747767e-05)
(0 -0 -1.349494786e-05)
(0 -0 -1.339786559e-05)
(0 -0 -1.323782257e-05)
(0 -0 -1.301699585e-05)
(0 -0 -1.273808791e-05)
(0 -0 -1.240428505e-05)
(0 -0 -1.201927774e-05)
(0 -0 5.978452606e-07)
(0 -0 1.01142572e-06)
(0 -0 1.411538334e-06)
(0 -0 1.758175203e-06)
(0 -0 2.041429269e-06)
(0 -0 2.256167724e-06)
(0 -0 2.398832232e-06)
(0 -0 2.467938724e-06)
(0 -0 2.463980962e-06)
(0 -0 2.38834578e-06)
(0 -0 2.242338363e-06)
(0 -0 2.027094406e-06)
(0 -0 1.744109058e-06)
(0 -0 1.395671279e-06)
(0 -0 9.849273284e-07)
(0 -0 5.156638042e-07)
(0 -0 -7.916285438e-09)
(0 -0 -5.812986875e-07)
(0 -0 -1.199662256e-06)
(0 -0 -1.857853454e-06)
(0 -0 -2.550379117e-06)
(0 -0 -3.271426978e-06)
(0 -0 -4.014904375e-06)
(0 -0 -4.774484366e-06)
(0 -0 -5.543656265e-06)
(0 -0 -6.31578763e-06)
(0 -0 -7.084207516e-06)
(0 -0 -7.842311782e-06)
(0 -0 -8.583675245e-06)
(0 -0 -9.302143934e-06)
(0 -0 -9.991884399e-06)
(0 -0 -1.064738397e-05)
(0 -0 -1.126341645e-05)
(0 -0 -1.1835001e-05)
(0 -0 -1.235738387e-05)
(0 -0 -1.282606466e-05)
(0 -0 -1.32368706e-05)
(0 -0 -1.358606165e-05)
(0 -0 -1.387044002e-05)
(0 -0 -1.408744626e-05)
(0 -0 -1.423523319e-05)
(0 -0 -1.431270999e-05)
(0 -0 -1.431955553e-05)
(0 -0 -1.425621174e-05)
(0 -0 -1.412386027e-05)
(0 -0 -1.392440917e-05)
(0 -0 -1.366039755e-05)
(0 -0 -1.333495579e-05)
(0 -0 -1.295180686e-05)
(0 -0 -1.251504022e-05)
(0 -0 3.884598594e-07)
(0 -0 8.227038793e-07)
(0 -0 1.242726668e-06)
(0 -0 1.606761058e-06)
(0 -0 1.904479631e-06)
(0 -0 2.130508748e-06)
(0 -0 2.281114878e-06)
(0 -0 2.35471874e-06)
(0 -0 2.351789929e-06)
(0 -0 2.273724613e-06)