/*--------------------------------*- C++ -*----------------------------------*\
| =========                 |                                                 |
| \\      /  F ield         | foam-extend: Open Source CFD                    |
|  \\    /   O peration     | Version:     4.1                                |
|   \\  /    A nd           | Web:         http://www.foam-extend.org         |
|    \\/     M anipulation  |                                                 |
\*---------------------------------------------------------------------------*/
FoamFile
{
    version     2.0;
    format      ascii;
    class       volScalarField;
    location    "200000";
    object      p;
}
// * * * * * * * * * * * * * * * * * * * * * * * * * * * * * * * * * * * * * //

dimensions      [0 2 -2 0 0 0 0];

internalField   nonuniform List<scalar> 
15920
(
1.822522004e-08
1.540011855e-08
1.320844994e-08
1.208958518e-08
1.129117818e-08
1.046721445e-08
9.665111713e-09
8.962723508e-09
8.363376366e-09
7.845382179e-09
7.397736773e-09
7.017022402e-09
6.698247542e-09
6.433402726e-09
6.213553736e-09
6.03016586e-09
5.875384852e-09
5.742115087e-09
5.624156759e-09
5.516297683e-09
5.414301498e-09
5.314826127e-09
5.215315386e-09
5.113883412e-09
5.009199762e-09
4.90038475e-09
4.786915116e-09
4.668541957e-09
4.545222713e-09
4.417066659e-09
4.284292194e-09
4.147194174e-09
4.006119687e-09
3.861450691e-09
3.713592031e-09
3.562963549e-09
3.409995291e-09
3.255124985e-09
3.098797144e-09
2.941463273e-09
2.783582716e-09
2.625623631e-09
2.468063666e-09
2.311390132e-09
2.156099569e-09
2.002696812e-09
1.851693736e-09
1.703607718e-09
1.558959626e-09
1.418271326e-09
1.292485081e-08
1.257423856e-08
1.200625791e-08
1.147756061e-08
1.096607428e-08
1.039084997e-08
9.777436631e-09
9.181260844e-09
8.628098363e-09
8.124089266e-09
7.673080286e-09
7.278599174e-09
6.940325849e-09
6.653673328e-09
6.411693858e-09
6.206858324e-09
6.031855125e-09
5.879896022e-09
5.744925907e-09
5.621764464e-09
5.506137889e-09
5.394624975e-09
5.284566798e-09
5.173957763e-09
5.061323359e-09
4.945638816e-09
4.826243974e-09
4.702763313e-09
4.575038967e-09
4.443076852e-09
4.307004145e-09
4.167036443e-09
4.023453045e-09
3.876578861e-09
3.726771575e-09
3.574412835e-09
3.419902409e-09
3.263654495e-09
3.106095527e-09
2.947663097e-09
2.78880579e-09
2.629983544e-09
2.47166797e-09
2.314342205e-09
2.158500107e-09
2.004644954e-09
1.853287809e-09
1.704945637e-09
1.560139116e-09
1.419389731e-09
1.240226759e-08
1.22391868e-08
1.179725056e-08
1.123763464e-08
1.069738948e-08
1.017951474e-08
9.664461323e-09
9.163730236e-09
8.694567204e-09
8.263442026e-09
7.870775421e-09
7.516629708e-09
7.200625249e-09
6.920665837e-09
6.673302749e-09
6.454517552e-09
6.260145256e-09
6.086016644e-09
5.928085623e-09
5.782581717e-09
5.646126267e-09
5.515787279e-09
5.389088664e-09
5.264009029e-09
5.138971836e-09
5.012768671e-09
4.884501737e-09
4.753540475e-09
4.619479615e-09
4.48209837e-09
4.341324107e-09
4.197201877e-09
4.049869481e-09
3.899537436e-09
3.746473269e-09
3.59098951e-09
3.433434712e-09
3.274186889e-09
3.113648868e-09
2.952245186e-09
2.790420124e-09
2.628636322e-09
2.467373576e-09
2.307127554e-09
2.148408191e-09
1.991737704e-09
1.837648012e-09
1.686677868e-09
1.539370163e-09
1.39626839e-09
1.141231626e-08
1.126951479e-08
1.098559387e-08
1.062542491e-08
1.02492514e-08
9.868707111e-09
9.477559618e-09
9.082788061e-09
8.698941731e-09
8.335352856e-09
7.995340316e-09
7.680307277e-09
7.391158695e-09
7.127724786e-09
6.888588791e-09
6.671497732e-09
6.473771516e-09
6.2925358e-09
6.124870576e-09
5.967948171e-09
5.819148723e-09
5.676132144e-09
5.536871259e-09
5.399660746e-09
5.263105374e-09
5.126087635e-09
4.987738158e-09
4.847409694e-09
4.704648964e-09
4.559167236e-09
4.41081314e-09
4.259549316e-09
4.105432875e-09
3.948599237e-09
3.789249067e-09
3.627637989e-09
3.464068564e-09
3.298884046e-09
3.132463475e-09
2.965217964e-09
2.79758794e-09
2.630040498e-09
2.46306725e-09
2.297182223e-09
2.132919366e-09
1.970829562e-09
1.811477755e-09
1.655439314e-09
1.503295258e-09
1.355627567e-09
1.077929859e-08
1.070846503e-08
1.053686909e-08
1.02857602e-08
9.993285353e-09
9.680976389e-09
9.355577978e-09
9.023672607e-09
8.694901771e-09
8.377201656e-09
8.074829121e-09
7.789890722e-09
7.5236148e-09
7.276391899e-09
7.047623025e-09
6.835927782e-09
6.639478657e-09
6.45623262e-09
6.284063341e-09
6.120861344e-09
5.964620321e-09
5.813499034e-09
5.665855748e-09
5.52026237e-09
5.375505761e-09
5.230579895e-09
5.08467224e-09
4.937147747e-09
4.787530918e-09
4.635487147e-09
4.480805079e-09
4.323380845e-09
4.163204385e-09
4.000347733e-09
3.834955107e-09
3.6672347e-09
3.497451992e-09
3.325924334e-09
3.153015936e-09
2.979133765e-09
2.804724772e-09
2.630272018e-09
2.456292306e-09
2.283333502e-09
2.111971072e-09
1.942803898e-09
1.776450357e-09
1.613543173e-09
1.454723507e-09
1.30063524e-09
1.029833642e-08
1.024817384e-08
1.012265619e-08
9.931805655e-09
9.701937244e-09
9.451095745e-09
9.186637886e-09
8.913418183e-09
8.637792838e-09
8.366001465e-09
8.102328715e-09
7.849270229e-09
7.608325669e-09
7.380288157e-09
7.165224321e-09
6.962557559e-09
6.771266837e-09
6.590063666e-09
6.417507186e-09
6.252088847e-09
6.092306713e-09
5.936726054e-09
5.784021131e-09
5.633000307e-09
5.482619301e-09
5.33198533e-09
5.180354123e-09
5.027122508e-09
4.871819166e-09
4.71409425e-09
4.553708539e-09
4.390522972e-09
4.224489318e-09
4.055641884e-09
3.884090244e-09
3.710012876e-09
3.53365194e-09
3.35530985e-09
3.175345349e-09
2.994167947e-09
2.812236065e-09
2.63005258e-09
2.448163845e-09
2.267156226e-09
2.087652332e-09
1.910305563e-09
1.735795266e-09
1.56482047e-09
1.39809314e-09
1.236331327e-09
9.921892859e-09
9.883999936e-09
9.790308611e-09
9.646060127e-09
9.467516616e-09
9.266916336e-09
9.050500912e-09
8.822785559e-09
8.58894162e-09
8.354109964e-09
8.122232002e-09
7.895906356e-09
7.676821988e-09
7.466036959e-09
7.264026501e-09
7.070725578e-09
6.885646412e-09
6.708011646e-09
6.536857347e-09
6.371109843e-09
6.209650417e-09
6.051369817e-09
5.895209542e-09
5.740189924e-09
5.585427732e-09
5.430145967e-09
5.273677626e-09
5.115465267e-09
4.955057955e-09
4.79210668e-09
4.626359038e-09
4.45765325e-09
4.285913337e-09
4.111143493e-09
3.933423604e-09
3.752905513e-09
3.569808845e-09
3.3844186e-09
3.197090394e-09
3.008242556e-09
2.818339984e-09
2.627904546e-09
2.437515657e-09
2.247801644e-09
2.059431695e-09
1.873117429e-09
1.68960656e-09
1.509672228e-09
1.334105873e-09
1.1637097e-09
9.625665573e-09
9.596576806e-09
9.524429316e-09
9.411815993e-09
9.269308758e-09
9.105487478e-09
8.925521177e-09
8.733474447e-09
8.533581837e-09
8.329926899e-09
8.125818467e-09
7.923648997e-09
7.725094912e-09
7.531294406e-09
7.342907081e-09
7.16015071e-09
6.982876509e-09
6.810663473e-09
6.64290031e-09
6.478849276e-09
6.317699197e-09
6.158611011e-09
6.000754735e-09
5.843337106e-09
5.685621025e-09
5.526938762e-09
5.36670037e-09
5.204398586e-09
5.039610395e-09
4.871996161e-09
4.701298967e-09
4.527342423e-09
4.350034875e-09
4.16935982e-09
3.985375433e-09
3.798214627e-09
3.608082542e-09
3.415248345e-09
3.220067828e-09
3.022973001e-09
2.824441068e-09
2.625018032e-09
2.425320718e-09
2.226028847e-09
2.027866787e-09
1.831609833e-09
1.638081995e-09
1.448140773e-09
1.262668192e-09
1.082561829e-09
9.391136471e-09
9.367991173e-09
9.310485479e-09
9.220044757e-09
9.104122339e-09
8.968858675e-09
8.818164088e-09
8.655287237e-09
8.483585315e-09
8.30629638e-09
8.126154972e-09
7.945276859e-09
7.765240981e-09
7.587185909e-09
7.41185716e-09
7.239639573e-09
7.070607739e-09
6.904590186e-09
6.741230458e-09
6.58003848e-09
6.420434326e-09
6.261786476e-09
6.103444356e-09
5.944764499e-09
5.785130685e-09
5.623968854e-09
5.460756591e-09
5.295031366e-09
5.126398593e-09
4.954533477e-09
4.779180635e-09
4.600141616e-09
4.417322417e-09
4.230688091e-09
4.040278349e-09
3.846208178e-09
3.648672467e-09
3.447952809e-09
3.244392177e-09
3.038404552e-09
2.830503262e-09
2.621274713e-09
2.411372134e-09
2.201516899e-09
1.99250731e-09
1.78520107e-09
1.580502974e-09
1.379363248e-09
1.182768754e-09
9.917268956e-10
9.205588402e-09
9.186713842e-09
9.13982221e-09
9.065748638e-09
8.96996632e-09
8.856897509e-09
8.729378281e-09
8.589911436e-09
8.441171022e-09
8.285767143e-09
8.125955377e-09
7.963552858e-09
7.79997881e-09
7.636305308e-09
7.473285916e-09
7.311379379e-09
7.150784335e-09
6.991483446e-09
6.833287983e-09
6.675878179e-09
6.518838979e-09
6.361691884e-09
6.203922717e-09
6.045003548e-09
5.884411396e-09
5.721649499e-09
5.556252833e-09
5.387792601e-09
5.215894192e-09
5.040241651e-09
4.860577814e-09
4.676721572e-09
4.488532203e-09
4.29595889e-09
4.099025546e-09
3.897834259e-09
3.69256856e-09
3.483495268e-09
3.270959674e-09
3.055392793e-09
2.837325388e-09
2.617375328e-09
2.396243261e-09
2.174715085e-09
1.953661186e-09
1.734023661e-09
1.516808483e-09
1.303078232e-09
1.093937194e-09
8.905188668e-10
9.059956147e-09
9.044274838e-09
9.005311239e-09
8.943549699e-09
8.863145486e-09
8.767362264e-09
8.658257966e-09
8.537737347e-09
8.407914785e-09
8.270882992e-09
8.128476803e-09
7.982215122e-09
7.833327294e-09
7.682778052e-09
7.531279093e-09
7.379302646e-09
7.227105121e-09
7.074757572e-09
6.922177547e-09
6.769159819e-09
6.61540362e-09
6.460538147e-09
6.304151035e-09
6.145803207e-09
5.985031313e-09
5.821398895e-09
5.65448019e-09
5.483881922e-09
5.309236859e-09
5.130222401e-09
4.946574792e-09
4.758091872e-09
4.56462673e-09
4.36610284e-09
4.162520807e-09
3.953961996e-09
3.740591826e-09
3.522664238e-09
3.300526835e-09
3.07462657e-09
2.845511096e-09
2.613831931e-09
2.38034262e-09
2.145897169e-09
1.91144579e-09
1.678029085e-09
1.446768303e-09
1.218853773e-09
9.95530915e-10
7.780846202e-10
8.947469757e-09
8.934229892e-09
8.901327314e-09
8.849034501e-09
8.780603612e-09
8.698504018e-09
8.604230067e-09
8.499208729e-09
8.385090581e-09
8.263540709e-09
8.136040302e-09
8.003841634e-09
7.86798652e-09
7.729317137e-09
7.588476361e-09
7.44591291e-09
7.301897534e-09
7.156542358e-09
7.009823107e-09
6.861606557e-09
6.711667096e-09
6.55969535e-09
6.405348954e-09
6.248244806e-09
6.08799144e-09
5.924163576e-09
5.756352926e-09
5.58417265e-09
5.407264131e-09
5.22530165e-09
5.038002312e-09
4.845135823e-09
4.646529651e-09
4.442077819e-09
4.231749773e-09
4.015597401e-09
3.793762048e-09
3.566481807e-09
3.334098911e-09
3.097066133e-09
2.855951203e-09
2.611441206e-09
2.364343771e-09
2.115586165e-09
1.866211925e-09
1.617374482e-09
1.370326576e-09
1.126407036e-09
8.870246644e-10
6.536389988e-10
8.862953825e-09
8.851623454e-09
8.823462418e-09
8.778610947e-09
8.719675583e-09
8.648562119e-09
8.56635563e-09
8.474114675e-09
8.373119853e-09
8.264691429e-09
8.150018954e-09
8.030123151e-09
7.905869916e-09
7.777974307e-09
7.646994374e-09
7.513328954e-09
7.377237905e-09
7.238840853e-09
7.098128395e-09
6.955007158e-09
6.809291163e-09
6.660733262e-09
6.50901007e-09
6.353765798e-09
6.194621615e-09
6.03118272e-09
5.863050371e-09
5.689832392e-09
5.511155321e-09
5.326671216e-09
5.136066508e-09
4.939073937e-09
4.73548184e-09
4.525142814e-09
4.307983955e-09
4.084017316e-09
3.853349985e-09
3.616194105e-09
3.372876917e-09
3.123849967e-09
2.86969684e-09
2.611139482e-09
2.349041871e-09
2.084410712e-09
1.818392902e-09
1.552269281e-09
1.287443848e-09
1.02542859e-09
7.678242962e-10
5.162975962e-10
8.802365248e-09
8.792560944e-09
8.768185894e-09
8.729295377e-09
8.678020803e-09
8.615859318e-09
8.543598625e-09
8.462017745e-09
8.372107057e-09
8.274909402e-09
8.171372051e-09
8.062315857e-09
7.948447503e-09
7.830360577e-09
7.708527247e-09
7.583262571e-09
7.454813791e-09
7.323279956e-09
7.188669059e-09
7.05088009e-09
6.90973862e-09
6.765005556e-09
6.616382805e-09
6.463527239e-09
6.306063781e-09
6.143596306e-09
5.975714985e-09
5.802006575e-09
5.62206674e-09
5.435510003e-09
5.241979168e-09
5.041156698e-09
4.832776026e-09
4.616632665e-09
4.392596422e-09
4.1606244e-09
3.920774266e-09
3.673217777e-09
3.418254236e-09
3.156323171e-09
2.888015687e-09
2.614083935e-09
2.335447828e-09
2.053198219e-09
1.768595922e-09
1.483065983e-09
1.198186351e-09
9.156707343e-10
6.373461236e-10
3.651254105e-10
8.762477143e-09
8.753921581e-09
8.732632313e-09
8.698608932e-09
8.653625831e-09
8.598879718e-09
8.534941842e-09
8.462368991e-09
8.381928413e-09
8.29444464e-09
8.200665475e-09
8.101240479e-09
7.996733987e-09
7.88762378e-09
7.77428733e-09
7.657026315e-09
7.535984068e-09
7.41124103e-09
7.282783528e-09
7.150508087e-09
7.014236855e-09
6.873726674e-09
6.728676829e-09
6.578737883e-09
6.42352135e-09
6.262609287e-09
6.095563416e-09
5.921934601e-09
5.741273584e-09
5.553141635e-09
5.357120952e-09
5.152826415e-09
4.939918439e-09
4.71811639e-09
4.487213127e-09
4.247090856e-09
3.997737964e-09
3.739266429e-09
3.471929405e-09
3.196138301e-09
2.91247861e-09
2.621723753e-09
2.324845994e-09
2.023023195e-09
1.717640273e-09
1.410284564e-09
1.102734155e-09
7.969386045e-10
4.949925202e-10
1.99102869e-10
8.740660879e-09
8.733137201e-09
8.7144064e-09
8.684432354e-09
8.644706225e-09
8.596194924e-09
8.539343118e-09
8.474503296e-09
8.40227261e-09
8.323301556e-09
8.238177129e-09
8.147407851e-09
8.051436796e-09
7.950638859e-09
7.845310186e-09
7.735663317e-09
7.621814164e-09
7.503798619e-09
7.381571104e-09
7.255007829e-09
7.123912772e-09
6.988023964e-09
6.847020644e-09
6.700530444e-09
6.548136427e-09
6.389385284e-09
6.223795876e-09
6.050867632e-09
5.870090147e-09
5.68095392e-09
5.482961679e-09
5.275640849e-09
5.058557578e-09
4.831332181e-09
4.593656376e-09
4.345312408e-09
4.08619375e-09
3.816326944e-09
3.535894151e-09
3.245255726e-09
2.944971936e-09
2.635822821e-09
2.318824866e-09
1.9952427e-09
1.666594127e-09
1.334647513e-09
1.001410624e-09
6.691096648e-10
3.401580863e-10
1.711618362e-11
8.734821222e-09
8.72813512e-09
8.711552668e-09
8.685018989e-09
8.649788235e-09
8.606640426e-09
8.555833846e-09
8.497716548e-09
8.432718321e-09
8.361323147e-09
8.283982931e-09
8.201092291e-09
8.112991476e-09
8.019963948e-09
7.922227928e-09
7.819928886e-09
7.71313457e-09
7.601836534e-09
7.485952231e-09
7.365326292e-09
7.239733344e-09
7.108882265e-09
6.972421226e-09
6.829942845e-09
6.680989515e-09
6.525059635e-09
6.361614651e-09
6.190086755e-09
6.009887823e-09
5.820419681e-09
5.621085564e-09
5.411303173e-09
5.19051982e-09
4.958229932e-09
4.713995052e-09
4.457466428e-09
4.188409991e-09
3.906733332e-09
3.612514319e-09
3.306030704e-09
2.987789537e-09
2.658554892e-09
2.319372204e-09
1.971587102e-09
1.61685631e-09
1.257148799e-09
8.947359766e-10
5.321693309e-10
1.722439751e-10
-1.820514522e-10
8.742994794e-09
8.737048668e-09
8.722326587e-09
8.698758929e-09
8.667412061e-09
8.628925304e-09
8.583501422e-09
8.531352463e-09
8.472807472e-09
8.408240949e-09
8.337998808e-09
8.262378152e-09
8.181630316e-09
8.095959565e-09
8.005514546e-09
7.910379992e-09
7.810572358e-09
7.706038613e-09
7.59665603e-09
7.48223228e-09
7.362506551e-09
7.237151521e-09
7.105775982e-09
6.967928004e-09
6.823098585e-09
6.670726079e-09
6.51020174e-09
6.340876301e-09
6.162067786e-09
5.973070881e-09
5.773167988e-09
5.561642647e-09
5.337795698e-09
5.100964629e-09
4.85054626e-09
4.586022901e-09
4.306992001e-09
4.013199124e-09
3.704574014e-09
3.381269046e-09
3.043698544e-09
2.692576816e-09
2.328952775e-09
1.954238913e-09
1.570231599e-09
1.179119288e-09
7.834759581e-10
3.862374725e-10
-9.341225997e-12
-3.997482148e-10
8.76362537e-09
8.758353165e-09
8.745279989e-09
8.724327764e-09
8.696418244e-09
8.66208307e-09
8.621459332e-09
8.57467895e-09
8.521990865e-09
8.463683755e-09
8.40001604e-09
8.331202658e-09
8.257420647e-09
8.178806837e-09
8.095448713e-09
8.007376457e-09
7.914558273e-09
7.816897676e-09
7.714231595e-09
7.606329038e-09
7.492890404e-09
7.373547432e-09
7.247863757e-09
7.115336089e-09
6.975396025e-09
6.827412669e-09
6.670696343e-09
6.504503454e-09
6.328042657e-09
6.140482874e-09
5.940963602e-09
5.728608127e-09
5.502540301e-09
5.26190527e-09
5.00589448e-09
4.733775373e-09
4.444926193e-09
4.138875987e-09
3.815349526e-09
3.474316378e-09
3.11604262e-09
2.741142702e-09
2.350628627e-09
1.9459536e-09
1.529046281e-09
1.102330443e-09
6.687251049e-10
2.316212829e-10
-2.051676826e-10
-6.374835144e-10
8.795346735e-09
8.790674092e-09
8.779075169e-09
8.760468357e-09
8.735652406e-09
8.70507041e-09
8.66880956e-09
8.626949667e-09
8.579673906e-09
8.527199292e-09
8.469714104e-09
8.40736775e-09
8.340276395e-09
8.26852023e-09
8.192134638e-09
8.111102295e-09
8.025348027e-09
7.93473515e-09
7.839062261e-09
7.738060371e-09
7.63139049e-09
7.518641734e-09
7.399329885e-09
7.272896504e-09
7.138708736e-09
6.996059878e-09
6.844170787e-09
6.682192455e-09
6.509210038e-09
6.324248873e-09
6.126283398e-09
5.914249488e-09
5.687060968e-09
5.443630905e-09
5.182898301e-09
4.903861099e-09
4.605616396e-09
4.287408302e-09
3.94868312e-09
3.589151069e-09
3.208853296e-09
2.808231984e-09
2.388200082e-09
1.950206387e-09
1.49629058e-09
1.029120879e-09
5.520063869e-10
6.8877687e-11
-4.157693272e-10
-8.969695677e-10
8.83690754e-09
8.832777871e-09
8.822522512e-09
8.806059249e-09
8.784078454e-09
8.756950329e-09
8.724726399e-09
8.687448934e-09
8.645249423e-09
8.598288002e-09
8.546698178e-09
8.490577754e-09
8.429993953e-09
8.36498082e-09
8.295530758e-09
8.221586604e-09
8.143036097e-09
8.059707411e-09
7.971364812e-09
7.877704337e-09
7.778349709e-09
7.672848592e-09
7.5606692e-09
7.441197298e-09
7.3137337e-09
7.177492364e-09
7.031599067e-09
6.875091007e-09
6.706917976e-09
6.525945752e-09
6.330962608e-09
6.120689636e-09
5.893795725e-09
5.648918187e-09
5.384690208e-09
5.099776521e-09
4.792918687e-09
4.462990941e-09
4.109066695e-09
3.730495214e-09
3.326987757e-09
2.898711546e-09
2.446387623e-09
1.971386472e-09
1.475813771e-09
9.625764366e-10
4.354171336e-10
-1.010940952e-10
-6.416203279e-10
-1.180176857e-09
8.887168671e-09
8.883541053e-09
8.874530451e-09
8.860056968e-09
8.840715223e-09
8.816814883e-09
8.788382545e-09
8.755434228e-09
8.718062454e-09
8.676383361e-09
8.630488089e-09
8.580434698e-09
8.526252528e-09
8.467939607e-09
8.405454486e-09
8.338708469e-09
8.267559683e-09
8.19180785e-09
8.111188858e-09
8.025369078e-09
7.933939662e-09
7.836410952e-09
7.732207103e-09
7.620660879e-09
7.501008549e-09
7.372384919e-09
7.233818705e-09
7.084228612e-09
6.922420804e-09
6.747088657e-09
6.556815577e-09
6.350081714e-09
6.125275648e-09
5.880712595e-09
5.61466103e-09
5.325379671e-09
5.011166593e-09
4.670422187e-09
4.301727261e-09
3.90393691e-09
3.476290264e-09
3.018535076e-09
2.531063155e-09
2.015048905e-09
1.47258052e-09
9.067705944e-10
3.218291218e-10
-2.769201855e-10
-8.830976843e-10
-1.489413144e-09
8.945075233e-09
8.941919135e-09
8.934078304e-09
8.921477869e-09
8.904627055e-09
8.883784668e-09
8.858960897e-09
8.830154838e-09
8.797430574e-09
8.760871177e-09
8.720536288e-09
8.676454875e-09
8.628628689e-09
8.577029526e-09
8.521591436e-09
8.462203086e-09
8.3987015e-09
8.330866082e-09
8.258412117e-09
8.180983794e-09
8.098146986e-09
8.009381935e-09
7.91407578e-09
7.811514882e-09
7.700876792e-09
7.581221786e-09
7.451484281e-09
7.310464708e-09
7.156822421e-09
6.989070484e-09
6.805573091e-09
6.604546615e-09
6.384065764e-09
6.142076962e-09
5.876421562e-09
5.584871407e-09
5.265179147e-09
4.915146134e-09
4.532711249e-09
4.116063419e-09
3.663779236e-09
3.174985454e-09
2.649543218e-09
2.088246031e-09
1.493018268e-09
8.670960698e-10
2.151659639e-10
-4.565695306e-10
-1.140431241e-09
-1.827435217e-09
9.009635498e-09
9.006927785e-09
9.000199661e-09
8.989383454e-09
8.974911302e-09
8.956998991e-09
8.935647341e-09
8.910846304e-09
8.882640406e-09
8.851089128e-09
8.816230249e-09
8.77807328e-09
8.736602026e-09
8.691771632e-09
8.643501195e-09
8.591666229e-09
8.536092067e-09
8.476547202e-09
8.412735831e-09
8.344289679e-09
8.270759367e-09
8.191605407e-09
8.106188623e-09
8.013759769e-09
7.913448169e-09
7.804249364e-09
7.685012108e-09
7.554425276e-09
7.411005172e-09
7.253083779e-09
7.078798688e-09
6.886086034e-09
6.672678364e-09
6.43610995e-09
6.173732534e-09
5.882744813e-09
5.560239355e-09
5.203271495e-09
4.808956021e-09
4.374597461e-09
3.897857947e-09
3.376964592e-09
2.810955633e-09
2.199958974e-09
1.545488478e-09
8.507340508e-10
1.208106156e-10
-6.370815606e-10
-1.413641367e-09
-2.197652527e-09
9.079905664e-09
9.077628407e-09
9.071968858e-09
9.062868276e-09
9.050688392e-09
9.035608434e-09
9.01762576e-09
8.996727769e-09
8.972947057e-09
8.946327831e-09
8.916894652e-09
8.884646465e-09
8.849558258e-09
8.811577938e-09
8.770619323e-09
8.726554744e-09
8.679208115e-09
8.628347628e-09
8.573677497e-09
8.514828811e-09
8.451349661e-09
8.382694478e-09
8.30821226e-09
8.227133338e-09
8.138554486e-09
8.041422428e-09
7.934516057e-09
7.816427644e-09
7.685543293e-09
7.540022893e-09
7.377780352e-09
7.196465693e-09
6.993451216e-09
6.765824299e-09
6.510389892e-09
6.223687105e-09
5.902025534e-09
5.541548277e-09
5.138330008e-09
4.688519694e-09
4.188536855e-09
3.635328417e-09
3.026690518e-09
2.361653701e-09
1.640918322e-09
8.673111595e-10
4.621478275e-11
-8.141016506e-10
-1.7023411e-09
-2.604329094e-09
9.154978997e-09
9.153117812e-09
9.148491535e-09
9.141051771e-09
9.131095315e-09
9.118770214e-09
9.104075407e-09
9.087001405e-09
9.067575493e-09
9.045833941e-09
9.021795885e-09
8.995457944e-09
8.966795e-09
8.93575699e-09
8.902262212e-09
8.8661901e-09
8.827374064e-09
8.785593677e-09
8.740565799e-09
8.691934711e-09
8.639261207e-09
8.582010408e-09
8.519537793e-09
8.451073093e-09
8.375701893e-09
8.292345002e-09
8.19973564e-09
8.096394268e-09
7.980600935e-09
7.850365293e-09
7.703395003e-09
7.537064037e-09
7.348382923e-09
7.133973202e-09
6.890049354e-09
6.612413481e-09
6.296470532e-09
5.937273633e-09
5.52961103e-09
5.068148938e-09
4.547646719e-09
3.963260652e-09
3.3109508e-09
2.588000528e-09
1.793645075e-09
9.297813314e-10
1.695758704e-12
-9.812999662e-10
-2.005480064e-09
-3.052743995e-09
9.233978653e-09
9.232521354e-09
9.228898491e-09
9.223073095e-09
9.215281667e-09
9.205645631e-09
9.194169808e-09
9.180852693e-09
9.165722046e-09
9.148812692e-09
9.130145422e-09
9.109722186e-09
9.087526093e-09
9.063518112e-09
9.037630756e-09
9.009761028e-09
8.979763145e-09
8.947440488e-09
8.912536443e-09
8.87472406e-09
8.833594358e-09
8.788642758e-09
8.739253135e-09
8.684679107e-09
8.624022477e-09
8.55620867e-09
8.479958758e-09
8.393757387e-09
8.295816153e-09
8.184032469e-09
8.055944367e-09
7.908681956e-09
7.738916777e-09
7.542811173e-09
7.315971029e-09
7.053407354e-09
6.749515665e-09
6.398085278e-09
5.992353961e-09
5.525128158e-09
4.988994817e-09
4.37665511e-09
3.681411846e-09
2.897840646e-09
2.022664459e-09
1.055826092e-09
1.70535661e-12
-1.129658777e-09
-2.321609428e-09
-3.550593531e-09
9.316053526e-09
9.314988978e-09
9.312342168e-09
9.30808839e-09
9.302407877e-09
9.295399384e-09
9.287077258e-09
9.277452164e-09
9.266557367e-09
9.254432031e-09
9.241105027e-09
9.226590721e-09
9.210888291e-09
9.193978327e-09
9.175816971e-09
9.156329153e-09
9.135401386e-09
9.112873789e-09
9.088531005e-09
9.062091745e-09
9.033196536e-09
9.001393092e-09
8.966118821e-09
8.926680168e-09
8.882228524e-09
8.831732138e-09
8.773943119e-09
8.707358444e-09
8.630174232e-09
8.540232949e-09
8.434963226e-09
8.311311762e-09
8.165667277e-09
7.993777877e-09
7.790664797e-09
7.550537397e-09
7.26671772e-09
6.931587961e-09
6.536580295e-09
6.072235819e-09
5.528370536e-09
4.894398519e-09
4.159871736e-09
3.31530032e-09
2.35330993e-09
1.27017337e-09
6.77031622e-11
-1.244566207e-09
-2.647180227e-09
-4.109222879e-09
9.400376364e-09
9.399693504e-09
9.397995331e-09
9.395270087e-09
9.391645392e-09
9.387200755e-09
9.381963107e-09
9.375958835e-09
9.369231064e-09
9.361828386e-09
9.353793505e-09
9.345159649e-09
9.33594924e-09
9.32617049e-09
9.315812024e-09
9.304836614e-09
9.293174367e-09
9.280715172e-09
9.267300039e-09
9.252710865e-09
9.236658005e-09
9.218765111e-09
9.198550867e-09
9.175407292e-09
9.148573962e-09
9.117107079e-09
9.079842124e-09
9.035348837e-09
8.981877271e-09
8.91729368e-09
8.839004765e-09
8.743868441e-09
8.6280894e-09
8.48709889e-09
8.315419814e-09
8.106519928e-09
7.852659087e-09
7.544742485e-09
7.172199705e-09
6.722921378e-09
6.18330301e-09
5.538470104e-09
4.772786981e-09
3.87078189e-09
2.818630949e-09
1.60632733e-09
2.305292939e-10
-1.301972145e-09
-2.970488456e-09
-4.736526552e-09
9.48614377e-09
9.485830721e-09
9.485051583e-09
9.483808062e-09
9.482178616e-09
9.480226509e-09
9.477993739e-09
9.47552532e-09
9.472877942e-09
9.470114037e-09
9.467295157e-09
9.464479061e-09
9.461717742e-09
9.459054145e-09
9.456517407e-09
9.454117318e-09
9.451838279e-09
9.44963254e-09
9.447412273e-09
9.445039897e-09
9.442316014e-09
9.438964546e-09
9.434614713e-09
9.428779347e-09
9.420828461e-09
9.409956652e-09
9.395142912e-09
9.375101378e-09
9.348221114e-09
9.312492352e-09
9.265416311e-09
9.203895375e-09
9.124099796e-09
9.021307064e-09
8.889711271e-09
8.722201096e-09
8.510106988e-09
8.242923025e-09
7.908019003e-09
7.490372908e-09
6.972374245e-09
6.333786324e-09
5.552006053e-09
4.602850634e-09
3.462185414e-09
2.108902013e-09
5.295227098e-10
-1.275298551e-09
-3.284057097e-09
-5.448274541e-09
9.572577875e-09
9.572621173e-09
9.572727538e-09
9.572912439e-09
9.573208521e-09
9.573665424e-09
9.574342139e-09
9.575304559e-09
9.576625966e-09
9.578386317e-09
9.580670206e-09
9.583564621e-09
9.587156432e-09
9.591529293e-09
9.596759735e-09
9.60291267e-09
9.61003643e-09
9.618157099e-09
9.627271624e-09
9.637339113e-09
9.648269875e-09
9.659911846e-09
9.672033942e-09
9.684305487e-09
9.696270473e-09
9.707315145e-09
9.716627296e-09
9.723145436e-09
9.725495261e-09
9.721909733e-09
9.710128288e-09
9.687270118e-09
9.649675222e-09
9.592705429e-09
9.51049693e-09
9.395655618e-09
9.238886447e-09
9.028550313e-09
8.75015021e-09
8.385763601e-09
7.91346405e-09
7.306811293e-09
6.534546228e-09
5.560738092e-09
4.345709789e-09
2.848810032e-09
1.033633697e-09
-1.119343256e-09
-3.597001467e-09
-6.327372611e-09
9.658929383e-09
9.659313419e-09
9.660266458e-09
9.661817852e-09
9.663957699e-09
9.666724291e-09
9.670194935e-09
9.674458011e-09
9.679605725e-09
9.685738435e-09
9.692967047e-09
9.701411355e-09
9.711197151e-09
9.722453434e-09
9.73530961e-09
9.749892328e-09
9.766321839e-09
9.784707645e-09
9.805142967e-09
9.827697588e-09
9.852408802e-09
9.879270135e-09
9.908217123e-09
9.939109115e-09
9.971705932e-09
1.000563798e-08
1.004036797e-08
1.007514195e-08
1.010892655e-08
1.01403283e-08
1.01674889e-08
1.018794933e-08
1.019847373e-08
1.019482146e-08
1.01714515e-08
1.012114018e-08
1.003448897e-08
9.899295927e-09
9.699763779e-09
9.415526475e-09
9.02050795e-09
8.481670225e-09
7.757848171e-09
6.798877013e-09
5.545485123e-09
3.930506268e-09
1.880157603e-09
-6.720593344e-10
-3.78006604e-09
-7.372323895e-09
9.744481794e-09
9.745188448e-09
9.746943082e-09
9.749788815e-09
9.75367647e-09
9.758634936e-09
9.764760536e-09
9.772165069e-09
9.780961265e-09
9.791271902e-09
9.803236384e-09
9.817009669e-09
9.83275907e-09
9.850662023e-09
9.870904604e-09
9.893679889e-09
9.919185775e-09
9.947622112e-09
9.979186923e-09
1.001407143e-08
1.005245366e-08
1.009449027e-08
1.014030573e-08
1.018997793e-08
1.024351914e-08
1.030085113e-08
1.036177252e-08
1.042591579e-08
1.049269066e-08
1.056120936e-08
1.063018701e-08
1.069780829e-08
1.076154915e-08
1.081793807e-08
1.086223488e-08
1.088799658e-08
1.088648941e-08
1.084589109e-08
1.075020858e-08
1.057781426e-08
1.029951022e-08
9.876010216e-09
9.255056634e-09
8.368170202e-09
7.129609733e-09
5.435473836e-09
3.172127507e-09
2.241711414e-10
-3.565932853e-09
-8.203598748e-09
9.828556679e-09
9.829565053e-09
9.832069352e-09
9.836126013e-09
9.841649889e-09
9.848662121e-09
9.857278159e-09
9.867633436e-09
9.879862024e-09
9.894110208e-09
9.910546896e-09
9.929363203e-09
9.950769038e-09
9.97499165e-09
1.000227561e-08
1.003288275e-08
1.006709153e-08
1.010519583e-08
1.014750331e-08
1.019433316e-08
1.02460129e-08
1.030287392e-08
1.036524496e-08
1.043344296e-08
1.050776012e-08
1.058844626e-08
1.067568491e-08
1.076956071e-08
1.087001469e-08
1.097678301e-08
1.108931274e-08
1.120664566e-08
1.13272574e-08
1.144883472e-08
1.156796537e-08
1.16797031e-08
1.177695207e-08
1.184958789e-08
1.188319e-08
1.185718417e-08
1.174211163e-08
1.149548866e-08
1.105590665e-08
1.033351386e-08
9.201141232e-09
7.474100477e-09
4.939591212e-09
1.313649387e-09
-3.565987557e-09
-9.709656782e-09
9.910519526e-09
9.911805822e-09
9.915000652e-09
9.920173039e-09
9.927205225e-09
9.936111954e-09
9.947027362e-09
9.960110022e-09
9.975515329e-09
9.993413128e-09
1.001400164e-08
1.003750768e-08
1.006418326e-08
1.0094305e-08
1.012817555e-08
1.016612516e-08
1.020851257e-08
1.025572569e-08
1.03081824e-08
1.036633119e-08
1.043065157e-08
1.050165367e-08
1.057987681e-08
1.066588657e-08
1.076026947e-08
1.086362445e-08
1.09765502e-08
1.109962666e-08
1.123338746e-08
1.137827926e-08
1.153460289e-08
1.170242839e-08
1.188147235e-08
1.207092089e-08
1.226917454e-08
1.247347783e-08
1.267937622e-08
1.287991128e-08
1.306441267e-08
1.321664156e-08
1.33118843e-08
1.331215852e-08
1.315838779e-08
1.275532935e-08
1.194904978e-08
1.046292516e-08
7.871843621e-09
3.24655032e-09
-4.105795278e-09
-1.598182751e-08
9.989785732e-09
9.991323261e-09
9.995142233e-09
1.000132329e-08
1.000971954e-08
1.002034044e-08
1.003333776e-08
1.0048892e-08
1.006717902e-08
1.00883912e-08
1.01127547e-08
1.014053017e-08
1.017200965e-08
1.020751676e-08
1.024740957e-08
1.02920835e-08
1.034197395e-08
1.039755894e-08
1.045936232e-08
1.052795744e-08
1.060397104e-08
1.068808733e-08
1.07810519e-08
1.088367548e-08
1.0996837e-08
1.112148556e-08
1.12586407e-08
1.140939009e-08
1.157488255e-08
1.175631333e-08
1.195489792e-08
1.217182886e-08
1.240820736e-08
1.266493643e-08
1.29425568e-08
1.324099693e-08
1.355919214e-08
1.389450194e-08
1.42418141e-08
1.459214431e-08
1.493040694e-08
1.523173294e-08
1.545532369e-08
1.553265321e-08
1.53469043e-08
1.467342417e-08
1.309992871e-08
9.456515711e-09
2.001788913e-09
-1.960317279e-08
1.006582673e-08
1.006758595e-08
1.00719557e-08
1.007902699e-08
1.008862741e-08
1.010076202e-08
1.011559863e-08
1.013333771e-08
1.015417383e-08
1.017831997e-08
1.020602761e-08
1.023758821e-08
1.027333019e-08
1.031361996e-08
1.03588659e-08
1.040952271e-08
1.046609547e-08
1.052914434e-08
1.059928994e-08
1.067721978e-08
1.07636956e-08
1.085956177e-08
1.096575445e-08
1.108331183e-08
1.121338549e-08
1.135725313e-08
1.151633228e-08
1.169219452e-08
1.188657991e-08
1.210140998e-08
1.233879711e-08