/*--------------------------------*- C++ -*----------------------------------*\
| =========                 |                                                 |
| \\      /  F ield         | foam-extend: Open Source CFD                    |
|  \\    /   O peration     | Version:     4.1                                |
|   \\  /    A nd           | Web:         http://www.foam-extend.org         |
|    \\/     M anipulation  |                                                 |
\*---------------------------------------------------------------------------*/
FoamFile
{
    version     2.0;
    format      ascii;
    class       surfaceScalarField;
    location    "200000";
    object      phi;
}
// * * * * * * * * * * * * * * * * * * * * * * * * * * * * * * * * * * * * * //

dimensions      [0 3 -1 0 0 0 0];

internalField   nonuniform List<scalar> 
31542
(
1.062543855e-07
3.075614543e-09
1.006222226e-07
5.632162619e-09
9.411791867e-08
6.504303937e-09
8.733286152e-08
6.78505723e-09
8.054739758e-08
6.78546408e-09
7.401987403e-08
6.527523695e-09
6.792344606e-08
6.09642811e-09
6.235247024e-08
5.570975957e-09
5.735181306e-08
5.000657363e-09
5.293151565e-08
4.420297694e-09
4.907709939e-08
3.854416688e-09
4.575600309e-08
3.321096882e-09
4.292372905e-08
2.832274797e-09
4.052963834e-08
2.394091615e-09
3.85212518e-08
2.008387513e-09
3.684714807e-08
1.674104711e-09
3.545886526e-08
1.388283712e-09
3.431206465e-08
1.146801358e-09
3.336712258e-08
9.449426563e-10
3.258930728e-08
7.778157505e-10
3.194867708e-08
6.406305769e-10
3.141979994e-08
5.288775374e-10
3.098136699e-08
4.384334362e-10
3.061573956e-08
3.65628028e-10
3.030845599e-08
3.072842474e-10
3.004777118e-08
2.606855459e-10
2.982422723e-08
2.235446778e-10
2.963025779e-08
1.939701432e-10
2.945983324e-08
1.704252421e-10
2.930815066e-08
1.516832922e-10
2.917136844e-08
1.367829661e-10
2.904638344e-08
1.24985774e-10
2.893064742e-08
1.157367956e-10
2.882201874e-08
1.08629382e-10
2.87186451e-08
1.033742397e-10
2.861887253e-08
9.977303479e-11
2.852117651e-08
9.769634687e-11
2.842411148e-08
9.706527336e-11
2.832627607e-08
9.783560957e-11
2.822629226e-08
9.998400741e-11
2.812279596e-08
1.034965039e-10
2.801443614e-08
1.083600375e-10
2.789987963e-08
1.145567561e-10
2.777781977e-08
1.220601581e-10
2.764698807e-08
1.308321173e-10
2.750616829e-08
1.408203321e-10
2.735421273e-08
1.519562683e-10
2.719005958e-08
1.641539411e-10
2.701275081e-08
1.773095611e-10
1.913020584e-10
2.682144942e-08
1.113829454e-07
1.02266935e-09
1.139958045e-07
3.019303678e-09
1.160874142e-07
4.41269412e-09
1.174678997e-07
5.404571553e-09
1.180958344e-07
6.157529074e-09
1.179658928e-07
6.657464977e-09
1.171706315e-07
6.891689066e-09
1.158374115e-07
6.904195607e-09
1.14091829e-07
6.746239493e-09
1.120511e-07
6.461026518e-09
1.098194657e-07
6.086050835e-09
1.074850725e-07
5.655490148e-09
1.051189794e-07
5.198367923e-09
1.027763644e-07
4.736706801e-09
1.004981129e-07
4.286638934e-09
9.831291316e-08
3.859304175e-09
9.623941896e-08
3.461777375e-09
9.428832711e-08
3.097892441e-09
9.24642675e-08
2.769001371e-09
9.076741987e-08
2.474662474e-09
8.919482694e-08
2.213222656e-09
8.774142002e-08
1.982283653e-09
8.640083693e-08
1.779015692e-09
8.516604936e-08
1.600414672e-09
8.402970279e-08
1.443629714e-09
8.298441987e-08
1.305967229e-09
8.202299141e-08
1.184971845e-09
8.113849714e-08
1.078463159e-09
8.032437528e-08
9.845459848e-10
7.957445272e-08
9.016048697e-10
7.888294716e-08
8.282876362e-10
7.824445038e-08
7.634816333e-10
7.765390012e-08
7.062860401e-10
7.710654548e-08
6.559828551e-10
7.659791009e-08
6.120083544e-10
7.612375572e-08
5.739261164e-10
7.568004869e-08
5.414021793e-10
7.526293049e-08
5.141824595e-10
7.486869293e-08
4.920723339e-10
7.449375791e-08
4.749183772e-10
7.41346614e-08
4.625924729e-10
7.378804249e-08
4.54978521e-10
7.345063729e-08
4.519616102e-10
7.311927804e-08
4.534191978e-10
7.27908963e-08
4.592138025e-10
7.246252994e-08
4.691867775e-10
7.213133294e-08
4.831534318e-10
7.179458763e-08
5.008993322e-10
7.144971981e-08
5.221772389e-10
5.467058661e-10
7.109431553e-08
1.096495167e-07
7.031526439e-10
1.10741302e-07
1.927518591e-09
1.122102242e-07
2.943772168e-09
1.13876495e-07
3.738301003e-09
1.156506727e-07
4.383351558e-09
1.174047778e-07
4.903360033e-09
1.190132552e-07
5.283211938e-09
1.20395098e-07
5.522353037e-09
1.215052766e-07
5.636061275e-09
1.223249092e-07
5.641394503e-09
1.228562177e-07
5.554743032e-09
1.231179518e-07
5.393756911e-09
1.231395056e-07
5.176815009e-09
1.229550747e-07
4.921138775e-09
1.225999457e-07
4.641768879e-09
1.221080248e-07
4.351225975e-09
1.215103559e-07
4.059446955e-09
1.20834324e-07
3.773924873e-09
1.20103375e-07
3.499950855e-09
1.193370853e-07
3.240952665e-09
1.18551443e-07
2.998865479e-09
1.177592446e-07
2.774482737e-09
1.169704983e-07
2.567762681e-09
1.161928132e-07
2.378100645e-09
1.154318803e-07
2.204563445e-09
1.146918167e-07
2.046031659e-09
1.13975474e-07
1.901315272e-09
1.132846963e-07
1.769241525e-09
1.12620529e-07
1.648713903e-09
1.119833867e-07
1.538747776e-09
1.113731864e-07
1.43848858e-09
1.107894514e-07
1.347217208e-09
1.102313916e-07
1.264346357e-09
1.096979641e-07
1.18941076e-09
1.091879191e-07
1.122053625e-09
1.086998344e-07
1.062010977e-09
1.082321416e-07
1.009095126e-09
1.077831461e-07
9.631779891e-10
1.073510437e-07
9.241747923e-10
1.069339337e-07
8.92028464e-10
1.065298313e-07
8.666951419e-10
1.061366789e-07
8.481311982e-10
1.057523592e-07
8.362817869e-10
1.053747083e-07
8.310707918e-10
1.050015306e-07
8.323922825e-10
1.046306159e-07
8.401022719e-10
1.04259757e-07
8.540131167e-10
1.038867668e-07
8.738902547e-10
1.035094976e-07
8.994469333e-10
9.303425975e-10
1.031258612e-07
1.095676546e-07
4.654979441e-10
1.10099486e-07
1.395687261e-09
1.108274259e-07
2.215832193e-09
1.116785289e-07
2.887197979e-09
1.126400799e-07
3.421800545e-09
1.137021813e-07
3.841258508e-09
1.148323281e-07
4.15306495e-09
1.159915343e-07
4.363146736e-09
1.171438714e-07
4.483724083e-09
1.18256703e-07
4.528562857e-09
1.193018261e-07
4.509619989e-09
1.202578219e-07
4.437761152e-09
1.211110052e-07
4.323631814e-09
1.218547334e-07
4.177410738e-09
1.224882493e-07
4.008253044e-09
1.230153798e-07
3.824095477e-09
1.2344319e-07
3.631636726e-09
1.237807571e-07
3.436357754e-09
1.240381421e-07
3.242565822e-09
1.242256061e-07
3.053488503e-09
1.243530606e-07
2.871410904e-09
1.244297115e-07
2.697831661e-09
1.244638548e-07
2.533619211e-09
1.244627961e-07
2.379159179e-09
1.244328695e-07
2.234489902e-09
1.243794846e-07
2.099416429e-09
1.243072e-07
1.973599778e-09
1.242198126e-07
1.856628715e-09
1.241204509e-07
1.748075214e-09
1.240116642e-07
1.647534157e-09
1.238955028e-07
1.554649484e-09
1.237735901e-07
1.469129562e-09
1.236471819e-07
1.390754144e-09
1.235172176e-07
1.319374768e-09
1.233843607e-07
1.254910249e-09
1.232490327e-07
1.197338803e-09
1.231114396e-07
1.146687937e-09
1.229715946e-07
1.103022718e-09
1.228293357e-07
1.066433318e-09
1.226843421e-07
1.03702187e-09
1.225361476e-07
1.01488956e-09
1.223841541e-07
1.00012475e-09
1.222276444e-07
9.927916321e-10
1.220657961e-07
9.929193479e-10
1.21897696e-07
1.000492594e-09
1.217223548e-07
1.015443584e-09
1.215387232e-07
1.037644857e-09
1.213457097e-07
1.066903684e-09
1.211421989e-07
1.102957578e-09
1.14547159e-09
1.209270698e-07
1.094428093e-07
3.52688844e-10
1.097731333e-07
1.065363382e-09
1.102712789e-07
1.717686698e-09
1.108838981e-07
2.274578913e-09
1.115737649e-07
2.731933796e-09
1.1231757e-07
3.097453522e-09
1.130942063e-07
3.376428867e-09
1.138847933e-07
3.572559873e-09
1.146755522e-07
3.692965352e-09
1.15456411e-07
3.747704273e-09
1.162189061e-07
3.747125112e-09
1.169557636e-07
3.700903846e-09
1.176612219e-07
3.61817379e-09
1.183311782e-07
3.507454729e-09
1.189630853e-07
3.376346217e-09
1.195558122e-07
3.231368823e-09
1.201094704e-07
3.077978873e-09
1.2062519e-07
2.920638396e-09
1.211048643e-07
2.762891889e-09
1.215508964e-07
2.607456759e-09
1.219659753e-07
2.456332309e-09
1.223528901e-07
2.310917304e-09
1.227143849e-07
2.172124795e-09
1.230530557e-07
2.040488787e-09
1.233712842e-07
1.916261804e-09
1.236712014e-07
1.799499592e-09
1.239546714e-07
1.690130048e-09
1.242232928e-07
1.588007416e-09
1.244784115e-07
1.492956421e-09
1.247211396e-07
1.40480594e-09
1.249523768e-07
1.323412275e-09
1.251728321e-07
1.248674136e-09
1.253830454e-07
1.180540867e-09
1.255834053e-07
1.119014935e-09
1.257741657e-07
1.064149878e-09
1.259554592e-07
1.016045272e-09
1.261273078e-07
9.74839184e-10
1.26289632e-07
9.406984817e-10
1.264422565e-07
9.138086668e-10
1.26584918e-07
8.943604391e-10
1.267172701e-07
8.825376651e-10
1.268388883e-07
8.785068169e-10
1.269492753e-07
8.824050598e-10
1.270478682e-07
8.943269061e-10
1.271340462e-07
9.143149412e-10
1.272071385e-07
9.423514233e-10
1.272664354e-07
9.783480984e-10
1.273112e-07
1.022139156e-09
1.273406815e-07
1.073476146e-09
1.132024083e-09
1.273541292e-07
1.09407657e-07
2.750319458e-10
1.096456116e-07
8.274086842e-10
1.100187733e-07
1.344524919e-09
1.104916697e-07
1.801682459e-09
1.110344556e-07
2.189147835e-09
1.116251192e-07
2.50678995e-09
1.12245142e-07
2.756406139e-09
1.128777764e-07
2.939925538e-09
1.135095e-07
3.061241707e-09
1.141305806e-07
3.126623701e-09
1.147342929e-07
3.143412765e-09
1.153161896e-07
3.119006996e-09
1.158737515e-07
3.060611847e-09
1.164060643e-07
2.975141906e-09
1.169134088e-07
2.869001721e-09
1.173968912e-07
2.747886582e-09
1.178581672e-07
2.616702956e-09
1.182992335e-07
2.479572232e-09
1.187222569e-07
2.339868547e-09
1.191294376e-07
2.200276144e-09
1.195229043e-07
2.062865613e-09
1.199046397e-07
1.929182036e-09
1.202764291e-07
1.800335605e-09
1.206398298e-07
1.677088403e-09
1.209961576e-07
1.559934255e-09
1.213464879e-07
1.449169429e-09
1.216916652e-07
1.344952774e-09
1.220323174e-07
1.24735505e-09
1.223688743e-07
1.156399217e-09
1.227015878e-07
1.072092166e-09
1.230305522e-07
9.944475967e-10
1.233557242e-07
9.235020827e-10
1.2367694e-07
8.593251256e-10
1.239939312e-07
8.020237068e-10
1.243063393e-07
7.517418245e-10
1.24613726e-07
7.086584998e-10
1.249155827e-07
6.729823788e-10
1.252113374e-07
6.44943596e-10
1.255003562e-07
6.247897279e-10
1.257819552e-07
6.127614036e-10
1.26055404e-07
6.090890552e-10
1.26319927e-07
6.139839946e-10
1.265747069e-07
6.276254268e-10
1.26818893e-07
6.501410372e-10
1.270516079e-07
6.816001711e-10
1.272719535e-07
7.22005816e-10
1.274790206e-07
7.712809639e-10
1.276718989e-07
8.292607907e-10
1.278496889e-07
8.956861479e-10
9.701981683e-10
1.280115149e-07
1.093888056e-07
2.162263612e-10
1.095655043e-07
6.507097908e-10
1.098472684e-07
1.062760751e-09
1.102138732e-07
1.435077594e-09
1.106453974e-07
1.757623607e-09
1.111250512e-07
2.027136283e-09
1.116380576e-07
2.243399922e-09
1.121706614e-07
2.407321838e-09
1.127107536e-07
2.521149638e-09
1.13248626e-07
2.58875137e-09
1.137769622e-07
2.615076481e-09
1.142904992e-07
2.605469798e-09
1.14785778e-07
2.565332969e-09
1.152609367e-07
2.499983134e-09
1.157154413e-07
2.414497204e-09
1.161497804e-07
2.313547542e-09
1.165651853e-07
2.201298299e-09
1.16963389e-07
2.081368653e-09
1.173464233e-07
1.956834361e-09
1.177164493e-07
1.83025026e-09
1.180756252e-07
1.703689833e-09
1.184260092e-07
1.578798242e-09
1.187694924e-07
1.456852688e-09
1.191077565e-07
1.338824546e-09
1.194422518e-07
1.225439284e-09
1.197741892e-07
1.117232152e-09
1.201045439e-07
1.01459818e-09
1.204340645e-07
9.178342665e-10
1.207632878e-07
8.271757614e-10
1.21092554e-07
7.428258574e-10
1.214220253e-07
6.649761132e-10
1.217517028e-07
5.938245826e-10
1.220814426e-07
5.295853799e-10
1.224109706e-07
4.724957997e-10
1.227398956e-07
4.228169432e-10
1.230677205e-07
3.808335563e-10
1.233938547e-07
3.468481427e-10
1.237176274e-07
3.211707625e-10
1.240382521e-07
3.041650187e-10
1.24354899e-07
2.961145314e-10
1.246666681e-07
2.973201781e-10
1.249725934e-07
3.080589133e-10
1.252716537e-07
3.285654547e-10
1.255627924e-07
3.590025982e-10
1.258449086e-07
3.994841163e-10
1.261168766e-07
4.500380229e-10
1.263775587e-07
5.105989424e-10
1.26625818e-07
5.810015159e-10
1.268605329e-07
6.609712595e-10
7.501179296e-10
1.270806131e-07
1.093750419e-07
1.711843005e-10
1.095107141e-07
5.150372566e-10
1.09730115e-07
8.4335961e-10
1.100213545e-07
1.143837945e-09
1.103708093e-07
1.408168782e-09
1.107655543e-07
1.63239136e-09
1.111937952e-07
1.815159246e-09
1.116446683e-07
1.956448805e-09
1.121084507e-07
2.057367286e-09
1.125769645e-07
2.120237587e-09
1.130436921e-07
2.14834876e-09
1.135036398e-07
2.145521913e-09
1.139531793e-07
2.11579328e-09
1.143899207e-07
2.06324164e-09
1.148125624e-07
1.991855419e-09
1.152207055e-07
1.905404426e-09
1.156146609e-07
1.807342977e-09
1.159952713e-07
1.700758292e-09
1.163637529e-07
1.588352755e-09
1.167215566e-07
1.472446634e-09
1.170702507e-07
1.354995807e-09
1.174114274e-07
1.237621662e-09
1.177466307e-07
1.12164949e-09
1.180773041e-07
1.008151308e-09
1.184047548e-07
8.97988707e-10
1.187301308e-07
7.918561756e-10
1.190544073e-07
6.903216304e-10
1.193783844e-07
5.938570389e-10
1.197026879e-07
5.028721303e-10
1.200277727e-07
4.177409544e-10
1.203539319e-07
3.388169617e-10
1.206812981e-07
2.664583552e-10
1.210098573e-07
2.010262472e-10
1.213394618e-07
1.428912874e-10
1.216698302e-07
9.244858833e-11
1.220005523e-07
5.011139253e-11
1.223310959e-07
1.630444047e-11
1.226609195e-07
-8.652885272e-12
1.229891487e-07
-2.406430984e-11
1.233149934e-07
-2.973008364e-11
1.236375268e-07
-2.521311939e-11
1.239557291e-07
-1.014305996e-11
1.242684555e-07
1.583931706e-11
1.245745582e-07
5.29002436e-11
1.248728043e-07
1.012384108e-10
1.251619195e-07
1.609230526e-10
1.254405973e-07
2.319213669e-10
1.257075171e-07
3.140817185e-10
1.259613668e-07
4.07121468e-10
5.106238651e-10
1.262008605e-07
1.093657724e-07
1.354117267e-10
1.09473666e-07
4.07143137e-10
1.096494666e-07
6.675588032e-10
1.098855591e-07
9.077452784e-10
1.101725378e-07
1.121190135e-09
1.10500818e-07
1.304111374e-09
1.108613271e-07
1.454650328e-09
1.11245608e-07
1.572167986e-09
1.116459414e-07
1.657033944e-09
1.120555845e-07
1.710594371e-09
1.124689254e-07
1.735007803e-09
1.128814786e-07
1.732968559e-09
1.132898103e-07
1.707461485e-09
1.136914535e-07
1.661598439e-09
1.1408481e-07
1.598498887e-09
1.144690294e-07
1.521185024e-09
1.148438757e-07
1.432496676e-09
1.15209598e-07
1.335036064e-09
1.15566811e-07
1.231139725e-09
1.159163884e-07
1.122869325e-09
1.162593683e-07
1.012016068e-09
1.165968747e-07
9.001153564e-10
1.169300532e-07
7.884710974e-10
1.172600188e-07
6.781857013e-10
1.175878206e-07
5.70186892e-10
1.179144153e-07
4.652614345e-10
1.18240646e-07
3.640908726e-10
1.185672287e-07
2.672742668e-10
1.188947393e-07
1.753613932e-10
1.192236293e-07
8.885086407e-11
1.195542214e-07
8.224844083e-12
1.198866817e-07
-6.600192907e-11
1.202210401e-07
-1.33332191e-10
1.205572074e-07
-1.932759674e-10
1.208949527e-07
-2.452967466e-10
1.212339193e-07
-2.888552633e-10
1.215736266e-07
-3.234029079e-10
1.219133636e-07
-3.483898752e-10
1.222525199e-07
-3.632206536e-10
1.225901785e-07
-3.673887089e-10
1.229253462e-07
-3.603805258e-10
1.232569227e-07
-3.417192389e-10
1.235837487e-07
-3.10986231e-10
1.239045041e-07
-2.678545399e-10
1.242178132e-07
-2.120701922e-10
1.245222305e-07
-1.434938135e-10
1.248162647e-07
-6.211270898e-11
1.250983967e-07
3.194978473e-11
1.253671045e-07
1.384135634e-10
2.568515745e-10
1.256208765e-07
1.093591543e-07
1.062571401e-10
1.094470147e-07
3.192823691e-10
1.095908171e-07
5.237561222e-10
1.097854933e-07
7.130690821e-10
1.100245396e-07
8.821438494e-10
1.103009706e-07
1.027680486e-09
1.106078747e-07
1.147746272e-09
1.109386332e-07
1.241409606e-09
1.112870716e-07
1.308595531e-09
1.116476461e-07
1.350019783e-09
1.120155899e-07
1.36706393e-09
1.123869633e-07
1.361595201e-09
1.127586332e-07
1.335791491e-09
1.131282261e-07
1.29200559e-09
1.134940644e-07
1.232660593e-09
1.138550877e-07
1.160161723e-09
1.142107609e-07
1.076823494e-09
1.145609798e-07
9.848172943e-10
1.149059802e-07
8.861393386e-10
1.152462546e-07
7.825950616e-10
1.155824748e-07
6.757959411e-10
1.159154282e-07
5.671619806e-10
1.162459641e-07
4.579351959e-10
1.165749469e-07
3.492028139e-10
1.169032136e-07
2.41920078e-10
1.172315431e-07
1.369318105e-10
1.175606624e-07
3.49714205e-11
1.178912225e-07
-6.328588034e-11
1.182237233e-07
-1.571395772e-10
1.185585999e-07
-2.460258121e-10
1.18896139e-07
-3.293143983e-10
1.192365282e-07
-4.063912406e-10
1.195798309e-07
-4.766348816e-10
1.199259654e-07
-5.394105214e-10
1.202747268e-07
-5.940581674e-10
1.206257714e-07
-6.398999119e-10
1.20978613e-07
-6.762445187e-10
1.21332616e-07
-7.023929363e-10
1.216870375e-07
-7.176420792e-10
1.2204096e-07
-7.213110365e-10
1.223933271e-07
-7.127473728e-10
1.227429493e-07
-6.913409909e-10
1.230885072e-07
-6.565435463e-10
1.23428549e-07
-6.078957122e-10
1.237615221e-07
-5.450426238e-10
1.240857801e-07
-4.677513559e-10
1.243996015e-07
-3.75933982e-10
1.247012163e-07
-2.696650842e-10
1.249888286e-07
-1.491988258e-10
-1.496711801e-11
1.252606472e-07
1.093542109e-07
8.204598613e-11
1.094271504e-07
2.463425542e-10
1.095469454e-07
4.039610533e-10
1.097101193e-07
5.498952063e-10
1.099120825e-07
6.801806546e-10
1.101477042e-07
7.920587336e-10
1.104117165e-07
8.83734003e-10
1.106989451e-07
9.541808933e-10
1.110044727e-07
1.003067897e-09
1.113237908e-07
1.030701625e-09
1.116529203e-07
1.03793449e-09
1.119884745e-07
1.026041125e-09
1.123276712e-07
9.965948766e-10
1.126683152e-07
9.513616488e-10
1.130087637e-07
8.922122469e-10
1.133478767e-07
8.210487947e-10
1.136849569e-07
7.397433191e-10
1.140196827e-07
6.500917106e-10
1.143520408e-07
5.537814386e-10
1.146822642e-07
4.523717709e-10
1.150107725e-07
3.472877424e-10
1.153381109e-07
2.398235788e-10
1.156649001e-07
1.311458489e-10
1.159918348e-07
2.226778627e-11
1.163196165e-07
-8.586181368e-11
1.166488861e-07
-1.92337966e-10
1.16980291e-07
-2.964337429e-10
1.173143761e-07
-3.97371089e-10
1.176516649e-07
-4.944285148e-10
1.179925523e-07
-5.869133744e-10
1.183373511e-07
-6.741133715e-10
1.186862634e-07
-7.553035934e-10
1.19039372e-07
-8.297435431e-10
1.193966283e-07
-8.966668947e-10
1.197578501e-07
-9.552800379e-10
1.201227125e-07
-1.004762244e-09
1.204907384e-07
-1.044270453e-09
1.208612926e-07
-1.072947055e-09
1.212335802e-07
-1.0899296e-09
1.216066358e-07
-1.094366443e-09
1.219793226e-07
-1.085433724e-09
1.223503357e-07
-1.062353659e-09
1.227182095e-07
-1.024416707e-09
1.230813217e-07
-9.710074586e-10
1.234379077e-07
-9.016281654e-10
1.237860794e-07
-8.159226307e-10
1.24123848e-07
-7.137022477e-10
1.244491512e-07
-5.949682181e-10
1.247598836e-07
-4.599311548e-10
-3.090275127e-10
1.25053944e-07
1.09350434e-07
6.161179979e-11
1.09411989e-07
1.847874508e-10
1.095133593e-07
3.025906974e-10
1.096520891e-07
4.11165422e-10
1.098248705e-07
5.073991728e-10
1.100279042e-07
5.890248586e-10
1.102571806e-07
6.54457457e-10
1.105086719e-07
7.026893616e-10
1.107784782e-07
7.332615076e-10
1.110629531e-07
7.462268488e-10
1.113588046e-07
7.420830407e-10
1.116631603e-07
7.216856662e-10
1.119735951e-07
6.861602533e-10
1.122881346e-07
6.368222777e-10
1.126052404e-07
5.751065515e-10
1.129237812e-07
5.025082018e-10
1.132429965e-07
4.205281814e-10
1.135624514e-07
3.306369711e-10
1.138819813e-07
2.342518129e-10
1.142016445e-07
1.327087193e-10
1.145217021e-07
2.723016359e-11
1.148425555e-07
-8.102990898e-11
1.151646591e-07
-1.909580467e-10
1.154885746e-07
-3.016480049e-10
1.15814868e-07
-4.121555184e-10
1.161441598e-07
-5.216301264e-10
1.164770086e-07
-6.292827565e-10
1.168139652e-07
-7.343279719e-10
1.171555252e-07
-8.359886934e-10
1.175020994e-07
-9.334876797e-10
1.178540208e-07
-1.026034894e-09
1.182115281e-07
-1.112811008e-09
1.185747462e-07
-1.192961718e-09
1.189436735e-07
-1.265594201e-09
1.19318169e-07
-1.329775532e-09
1.196979395e-07
-1.3845328e-09
1.20082527e-07
-1.428857862e-09
1.20471296e-07
-1.461715995e-09
1.208634243e-07
-1.482057761e-09
1.212578933e-07
-1.488835225e-09
1.216534817e-07
-1.481021914e-09
1.220487643e-07
-1.457635832e-09
1.224421139e-07
-1.417765925e-09
1.228317084e-07
-1.36060152e-09
1.232155434e-07
-1.285462839e-09
1.23591453e-07
-1.191831855e-09
1.239571344e-07
-1.079383293e-09
1.243101799e-07
-9.480134025e-10
1.246481144e-07
-7.978654699e-10
-6.293507447e-10
1.249684376e-07
1.09347482e-07
4.412968654e-11
1.09400145e-07
1.321245282e-10
1.094870612e-07
2.156746092e-10
1.096064596e-07
2.917668653e-10
1.097559199e-07
3.579386586e-10
1.099326061e-07
4.12338362e-10
1.101334594e-07
4.536038123e-10
1.103553452e-07
4.808034008e-10
1.105951715e-07
4.934350367e-10
1.108499967e-07
4.914018112e-10
1.111171151e-07
4.749647895e-10
1.113941174e-07
4.446836104e-10
1.11678925e-07
4.013529091e-10
1.119698045e-07
3.459429029e-10
1.122653677e-07
2.795435189e-10
1.125645454e-07
2.03330669e-10
1.128665823e-07
1.18491451e-10
1.13171013e-07
2.620656728e-11
1.134776063e-07
-7.234135162e-11
1.137863213e-07
-1.760061471e-10
1.140973091e-07
-2.837576651e-10
1.144108405e-07
-3.945615349e-10
1.147273413e-07
-5.074591761e-10
1.150472618e-07
-6.215688637e-10
1.15371139e-07
-7.360331059e-10
1.156995362e-07
-8.500276228e-10
1.16033002e-07
-9.627489075e-10
1.163720765e-07
-1.073402706e-09
1.167172707e-07
-1.181183033e-09
1.170690428e-07
-1.285259825e-09
1.174277782e-07
-1.384770426e-09
1.177937742e-07
-1.47880702e-09
1.181672212e-07
-1.566408825e-09
1.18548185e-07
-1.646558102e-09
1.189365875e-07
-1.718178023e-09
1.19332188e-07
-1.780133429e-09
1.197345658e-07
-1.831235577e-09
1.20143101e-07
-1.870251203e-09
1.205569593e-07
-1.895915933e-09
1.209750766e-07
-1.906952501e-09
1.213961486e-07
-1.90209381e-09
1.218186235e-07
-1.880110567e-09
1.22240701e-07
-1.839843222e-09
1.226603373e-07
-1.780237508e-09
1.230752573e-07
-1.700382379e-09
1.23482975e-07
-1.599549076e-09
1.238808223e-07
-1.477230207e-09
1.24265986e-07
-1.333176887e-09
1.246355527e-07
-1.167432001e-09
-9.803582411e-10
1.249865603e-07
1.093451228e-07
2.900689204e-11
1.093906955e-07
8.655204582e-11
1.094660486e-07
1.403215403e-10
1.095698849e-07
1.879304053e-10
1.097004114e-07
2.274118216e-10
1.09855494e-07
2.57255346e-10
1.100327897e-07
2.763076668e-10
1.102298538e-07
2.837390564e-10
1.104442372e-07
2.790516586e-10
1.106735757e-07
2.620633972e-10
1.109156606e-07
2.32880184e-10
1.111684907e-07
1.918537174e-10
1.114303062e-07
1.395376273e-10
1.116996119e-07
7.663730714e-11
1.1197521e-07
3.945588074e-12
1.122561093e-07
-7.756857283e-11
1.125416214e-07
-1.670204704e-10
1.128312736e-07
-2.634455282e-10
1.131248111e-07
-3.658787403e-10
1.13422188e-07
-4.73383014e-10
1.137234918e-07
-5.850614958e-10
1.140289694e-07
-7.000393611e-10
1.143389854e-07
-8.17475473e-10
1.146539742e-07
-9.36558036e-10
1.14974442e-07
-1.056501348e-09
1.153009427e-07
-1.176528636e-09
1.156340533e-07
-1.29585976e-09
1.159743525e-07
-1.413702145e-09
1.163224025e-07
-1.529233165e-09
1.166787285e-07
-1.641585815e-09
1.170437967e-07
-1.749838637e-09
1.174179945e-07
-1.853004841e-09
1.178016086e-07
-1.950023001e-09
1.181948017e-07
-2.039751349e-09
1.185975884e-07
-2.120964893e-09
1.190098105e-07
-2.19235567e-09
1.194311119e-07
-2.252537098e-09
1.198609138e-07
-2.300053198e-09
1.20298391e-07
-2.333393171e-09
1.207424502e-07
-2.351011832e-09
1.211917125e-07
-2.351356188e-09
1.216445001e-07
-2.332898091e-09
1.220988298e-07
-2.294172666e-09
1.225524144e-07
-2.233821728e-09
1.230026735e-07
-2.150640999e-09
1.234467545e-07
-2.043629587e-09
1.238815645e-07
-1.912039925e-09
1.243038138e-07
-1.755425903e-09
1.247100684e-07
-1.573686553e-09
-1.367103423e-09
1.250968136e-07
1.093431894e-07
1.581757119e-11
1.093829928e-07
4.674890524e-11
1.094489164e-07
7.439794248e-11
1.095399982e-07
9.684840951e-11
1.096548927e-07
1.125169168e-10
1.097919803e-07
1.201672754e-10
1.09949484e-07
1.188035985e-10
1.101254738e-07
1.077491197e-10
1.103180081e-07
8.65173715e-11
1.105251944e-07
5.487728779e-11
1.107452396e-07
1.283523529e-11
1.109765018e-07
-3.940828274e-11
1.112175108e-07
-1.014712446e-10
1.11467007e-07
-1.728588089e-10
1.117239129e-07
-2.529603307e-10
1.119874282e-07
-3.410837914e-10
1.122569182e-07
-4.365104288e-10
1.125319602e-07
-5.384874948e-10
1.12812331e-07
-6.46249537e-10
1.130979825e-07
-7.590345553e-10
1.133890113e-07
-8.760903582e-10
1.13685653e-07
-9.966812587e-10
1.139882617e-07
-1.120084427e-09
1.142972893e-07
-1.245585962e-09
1.146132651e-07
-1.372477476e-09
1.149367781e-07
-1.500041921e-09
1.152684579e-07
-1.627539847e-09
1.156089531e-07
-1.754197429e-09
1.159589114e-07
-1.879191467e-09
1.163189597e-07
-2.001634075e-09
1.166896807e-07
-2.120559703e-09
1.17071589e-07
-2.234913199e-09
1.17465105e-07
-2.34353912e-09
1.178705272e-07
-2.44517376e-09
1.182880023e-07
-2.538440275e-09
1.187174937e-07
-2.621847349e-09
1.191587488e-07
-2.693792374e-09
1.196112655e-07
-2.752570148e-09
1.200742601e-07
-2.796388034e-09
1.205466364e-07
-2.823388359e-09
1.210269589e-07
-2.831678661e-09
1.21513431e-07
-2.819369936e-09
1.220038814e-07
-2.784622678e-09
1.224957601e-07
-2.725699959e-09
1.229861457e-07
-2.641026255e-09
1.234717666e-07
-2.529250215e-09
1.239490358e-07
-2.389309027e-09
1.244141015e-07
-2.220491363e-09
1.248629103e-07
-2.022495246e-09
-1.795477761e-09
1.252912847e-07
1.093415962e-07
4.221479021e-12
1.09376621e-07
1.172435443e-11
1.094347088e-07
1.631011621e-11
1.095151524e-07
1.640463517e-11
1.096169343e-07
1.073460841e-11
1.097387518e-07
-1.650534588e-12
1.098793542e-07
-2.179905369e-11
1.10037164e-07
-5.006072327e-11
1.102106656e-07
-8.698413783e-11
1.103983452e-07
-1.328021049e-10
1.105987515e-07
-1.875709082e-10
1.108105358e-07
-2.511923868e-10
1.110324939e-07
-3.23429278e-10
1.112635687e-07
-4.039336462e-10
1.115028754e-07
-4.922670477e-10
1.117497167e-07
-5.879251073e-10
1.120035679e-07
-6.903617613e-10
1.122640816e-07
-7.990012568e-10
1.125310823e-07
-9.132501824e-10
1.128045545e-07
-1.032506858e-09
1.130846315e-07
-1.156167378e-09
1.133715803e-07
-1.283630143e-09
1.136657891e-07
-1.414293363e-09
1.139677529e-07
-1.547550067e-09
1.142780561e-07
-1.68278097e-09
1.145973564e-07
-1.819342482e-09
1.149263686e-07
-1.95655221e-09
1.152658453e-07
-2.093674239e-09
1.156165571e-07
-2.229903236e-09
1.159792708e-07
-2.364347716e-09
1.163547253e-07
-2.496014238e-09
1.167436048e-07
-2.623792772e-09
1.171465088e-07
-2.746443342e-09
1.175639197e-07
-2.862584863e-09
1.179961662e-07
-2.970687017e-09
1.184433844e-07
-3.069065931e-09
1.189054766e-07
-3.155884856e-09
1.193820673e-07
-3.229161212e-09
1.198724604e-07
-3.286781354e-09
1.203755963e-07
-3.326524301e-09
1.208900133e-07
-3.34609541e-09
1.214138142e-07
-3.343170549e-09
1.219446428e-07
-3.315450828e-09
1.224796705e-07
-3.260727355e-09
1.230155991e-07
-3.176954665e-09
1.235486796e-07
-3.062330634e-09
1.240747504e-07
-2.915379834e-09
1.245892954e-07
-2.735036361e-09
1.250875214e-07
-2.520721227e-09
-2.272409347e-09
1.25564453e-07
1.093403295e-07
-6.107908444e-12
1.093713347e-07
-1.92806209e-11
1.094227861e-07
-3.514128648e-11
1.094941556e-07
-5.49651052e-11
1.095846886e-07
-7.979857315e-11
1.096935105e-07
-1.10472626e-10
1.098194034e-07
-1.476920768e-10
1.099612893e-07
-1.919465472e-10
1.10117946e-07
-2.436406458e-10
1.102881689e-07
-3.030248375e-10
1.104707982e-07
-3.702000439e-10
1.106647459e-07
-4.451399246e-10
1.108690262e-07
-5.277096203e-10
1.110827752e-07
-6.176826391e-10
1.113052689e-07
-7.147607831e-10
1.115359354e-07
-8.185917572e-10
1.117743578e-07
-9.287842182e-10
1.120202753e-07
-1.04491887e-09
1.122735825e-07
-1.16655734e-09
1.12534324e-07
-1.293248411e-09
1.128026888e-07
-1.424532082e-09
1.130790001e-07
-1.559941546e-09
1.133637075e-07
-1.699000892e-09
1.136573759e-07
-1.841218671e-09
1.139606732e-07
-1.986078541e-09
1.142743572e-07
-2.133026648e-09
1.145992608e-07
-2.281455915e-09
1.149362753e-07
-2.430688807e-09
1.152863311e-07
-2.579959018e-09
1.156503757e-07
-2.728392261e-09
1.160293485e-07
-2.87498709e-09
1.16424152e-07
-3.018596353e-09
1.168356182e-07
-3.15790966e-09
1.172644708e-07
-3.291437624e-09
1.177112824e-07
-3.417498855e-09
1.18176427e-07
-3.534210892e-09
1.186600283e-07
-3.639486567e-09
1.191619044e-07
-3.731037618e-09
1.196815104e-07
-3.806387445e-09
1.202178812e-07
-3.86289484e-09
1.207695764e-07
-3.897790299e-09
1.213346324e-07
-3.908226058e-09
1.219105222e-07
-3.891340458e-09
1.224941314e-07
-3.844336529e-09
1.230817503e-07
-3.764573584e-09
1.236690888e-07
-3.649669242e-09
1.242513169e-07
-3.497607976e-09
1.248231314e-07
-3.306850874e-09
1.2537885e-07
-3.076439992e-09
-2.806089875e-09
1.259125303e-07
1.093391891e-07
-1.529688317e-11
1.093667159e-07
-4.680734046e-11
1.094124353e-07
-8.086070785e-11
1.09475966e-07
-1.184959089e-10
1.095567374e-07
-1.60570052e-10
1.096540298e-07
-2.077650907e-10
1.09766985e-07
-2.60647132e-10
1.098947154e-07
-3.19676787e-10
1.100362739e-07
-3.851989315e-10
1.101906984e-07
-4.57449176e-10
1.103570545e-07
-5.36556008e-10
1.105344656e-07
-6.225509228e-10
1.107221372e-07
-7.15381188e-10
1.109193777e-07
-8.149231299e-10
1.111256136e-07
-9.209967678e-10
1.113404007e-07
-1.033378934e-09
1.115634309e-07
-1.15181446e-09
1.11794537e-07
-1.276024959e-09
1.120336948e-07
-1.405715151e-09
1.122810236e-07
-1.540577106e-09
1.12536784e-07
-1.68029246e-09
1.128013746e-07
-1.824532228e-09
1.130753268e-07
-1.97295318e-09
1.133592981e-07
-2.125190248e-09
1.136540648e-07
-2.280845402e-09
1.139605111e-07
-2.43947316e-09
1.142796181e-07
-2.600562967e-09
1.146124486e-07
-2.76351934e-09
1.1496013e-07
-2.927640383e-09
1.153238327e-07
-3.092095004e-09
1.157047451e-07
-3.255899412e-09
1.161040422e-07
-3.417893452e-09
1.165228499e-07
-3.57671731e-09
1.169622015e-07
-3.730789369e-09
1.174229887e-07
-3.878286322e-09
1.179059045e-07
-4.017127044e-09
1.184113799e-07
-4.144962167e-09
1.189395139e-07
-4.259171684e-09
1.194899997e-07
-4.356873137e-09
1.200620482e-07
-4.434943063e-09
1.206543123e-07
-4.490054197e-09
1.21264817e-07
-4.518730609e-09
1.218908989e-07
-4.517422272e-09
1.225291618e-07
-4.48259963e-09
1.231754554e-07
-4.410867376e-09
1.238248808e-07
-4.29909476e-09
1.244718302e-07
-4.144557618e-09
1.251100643e-07
-3.945085124e-09
1.257328263e-07
-3.699202096e-09
-3.406255712e-09
1.263329921e-07
1.093381438e-07
-2.344057786e-11
1.093626024e-07
-7.126591162e-11
1.094032714e-07
-1.215298683e-10
1.0945987e-07
-1.750945504e-10
1.09531964e-07
-2.326640407e-10
1.096190006e-07
-2.948015282e-10