/*--------------------------------*- C++ -*----------------------------------*\
| =========                 |                                                 |
| \\      /  F ield         | foam-extend: Open Source CFD                    |
|  \\    /   O peration     | Version:     4.1                                |
|   \\  /    A nd           | Web:         http://www.foam-extend.org         |
|    \\/     M anipulation  |                                                 |
\*---------------------------------------------------------------------------*/
FoamFile
{
    version     2.0;
    format      ascii;
    class       volVectorField;
    location    "200000";
    object      U;
}
// * * * * * * * * * * * * * * * * * * * * * * * * * * * * * * * * * * * * * //

dimensions      [0 1 -1 0 0 0 0];

internalField   nonuniform List<vector> 
15920
(
(0.0002132432349 5.117841059e-06 0)
(0.0002058603432 1.13009979e-05 0)
(0.0001957554621 1.371512622e-05 0)
(0.0001822392236 1.419496255e-05 0)
(0.0001678470673 1.374622221e-05 0)
(0.0001542304217 1.267653318e-05 0)
(0.0001416523059 1.117045161e-05 0)
(0.0001300309509 9.451781295e-06 0)
(0.0001194400167 7.718343167e-06 0)
(0.0001099999177 6.096454776e-06 0)
(0.0001017363379 4.654025596e-06 0)
(9.458843244e-05 3.422569739e-06 0)
(8.846391933e-05 2.408327842e-06 0)
(8.326434384e-05 1.599094846e-06 0)
(7.888752096e-05 9.718138287e-07 0)
(7.522934947e-05 4.991325005e-07 0)
(7.218899893e-05 1.535265628e-07 0)
(6.967320294e-05 -9.047088597e-08 0)
(6.75980739e-05 -2.551516221e-07 0)
(6.588949547e-05 -3.592441408e-07 0)
(6.448302805e-05 -4.180211926e-07 0)
(6.332352868e-05 -4.436740381e-07 0)
(6.236449918e-05 -4.457894601e-07 0)
(6.156723999e-05 -4.318016395e-07 0)
(6.089987916e-05 -4.07329885e-07 0)
(6.033641507e-05 -3.765331226e-07 0)
(5.985582452e-05 -3.424341136e-07 0)
(5.944124105e-05 -3.071801065e-07 0)
(5.907920679e-05 -2.72244851e-07 0)
(5.875900788e-05 -2.385855254e-07 0)
(5.847209974e-05 -2.067660098e-07 0)
(5.821162047e-05 -1.770550869e-07 0)
(5.797198634e-05 -1.49505503e-07 0)
(5.774856177e-05 -1.240179267e-07 0)
(5.753739549e-05 -1.003926082e-07 0)
(5.733501409e-05 -7.837054441e-08 0)
(5.713826379e-05 -5.766544823e-08 0)
(5.694419223e-05 -3.798841882e-08 0)
(5.674996412e-05 -1.906747854e-08 0)
(5.655280671e-05 -6.621776058e-10 0)
(5.634998058e-05 1.742854911e-08 0)
(5.61387704e-05 3.536552971e-08 0)
(5.591648951e-05 5.327226886e-08 0)
(5.568049396e-05 7.123752554e-08 0)
(5.542820306e-05 8.931582931e-08 0)
(5.515712555e-05 1.075267942e-07 0)
(5.48648903e-05 1.258550004e-07 0)
(5.45492804e-05 1.44251476e-07 0)
(5.420826863e-05 1.626365519e-07 0)
(5.384005293e-05 1.809038753e-07 0)
(0.0002201179238 5.641238076e-06 0)
(0.0002251691869 1.293201808e-05 0)
(0.0002303476059 1.65907057e-05 0)
(0.0002340416698 1.852380732e-05 0)
(0.000235972616 1.963532975e-05 0)
(0.0002363658708 2.004891031e-05 0)
(0.0002354004641 1.980992333e-05 0)
(0.0002332364422 1.906120378e-05 0)
(0.0002301020793 1.796036626e-05 0)
(0.00022625805 1.662944388e-05 0)
(0.0002219395783 1.516299462e-05 0)
(0.0002173386189 1.364069185e-05 0)
(0.0002126102452 1.212813784e-05 0)
(0.0002078791201 1.0674982e-05 0)
(0.0002032413003 9.315530594e-06 0)
(0.0001987660423 8.071087218e-06 0)
(0.0001944997621 6.952455971e-06 0)
(0.000190470819 5.962244465e-06 0)
(0.0001866937612 5.097020628e-06 0)
(0.0001831727893 4.34925154e-06 0)
(0.0001799046165 3.708911195e-06 0)
(0.0001768807958 3.164729113e-06 0)
(0.0001740895606 2.705125152e-06 0)
(0.000171517273 2.318855062e-06 0)
(0.000169149377 1.99537252e-06 0)
(0.0001669710311 1.72507608e-06 0)
(0.0001649675637 1.499459344e-06 0)
(0.0001631247858 1.311160773e-06 0)
(0.0001614291793 1.153935707e-06 0)
(0.0001598679912 1.022580528e-06 0)
(0.0001584292609 9.128308515e-07 0)
(0.0001571018012 8.212474643e-07 0)
(0.0001558751508 7.450994125e-07 0)
(0.0001547395092 6.822508463e-07 0)
(0.0001536856635 6.310558632e-07 0)
(0.0001527049136 5.90263653e-07 0)
(0.0001517890015 5.589349398e-07 0)
(0.000150930047 5.363697528e-07 0)
(0.0001501204933 5.220458161e-07 0)
(0.0001493530621 5.155664661e-07 0)
(0.0001486207176 5.166171818e-07 0)
(0.0001479166397 5.249301843e-07 0)
(0.0001472342061 5.402564677e-07 0)
(0.000146566985 5.623440598e-07 0)
(0.0001459087384 5.909208112e-07 0)
(0.0001452534317 6.25680002e-07 0)
(0.000144595252 6.662685684e-07 0)
(0.0001439286293 7.122787272e-07 0)
(0.0001432482647 7.632425426e-07 0)
(0.0001425491619 8.18630117e-07 0)
(0.0002187788033 1.468219963e-06 0)
(0.000220038594 4.391936477e-06 0)
(0.0002226217554 7.021619337e-06 0)
(0.0002259649241 9.372306017e-06 0)
(0.000229535662 1.146644933e-05 0)
(0.0002331021952 1.31888551e-05 0)
(0.0002364965892 1.444373686e-05 0)
(0.000239526361 1.522714466e-05 0)
(0.0002420429014 1.558478315e-05 0)
(0.0002439775273 1.557441971e-05 0)
(0.0002453220247 1.525920377e-05 0)
(0.0002461034927 1.470736464e-05 0)
(0.0002463718789 1.398673031e-05 0)
(0.0002461920213 1.315836874e-05 0)
(0.0002456351499 1.227316746e-05 0)
(0.0002447717907 1.137123279e-05 0)
(0.0002436675167 1.048261492e-05 0)
(0.00024238095 9.628498753e-06 0)
(0.0002409629569 8.822629315e-06 0)
(0.000239456511 8.072832986e-06 0)
(0.0002378970479 7.382465863e-06 0)
(0.0002363131635 6.751674095e-06 0)
(0.0002347274644 6.178435625e-06 0)
(0.000233157396 5.659380089e-06 0)
(0.0002316160698 5.190376374e-06 0)
(0.0002301131061 4.766988915e-06 0)
(0.0002286553291 4.3848154e-06 0)
(0.0002272473208 4.039708948e-06 0)
(0.0002258918752 3.727907163e-06 0)
(0.000224590373 3.446095224e-06 0)
(0.0002233430823 3.191423787e-06 0)
(0.0002221493934 2.961496222e-06 0)
(0.0002210080008 2.754336017e-06 0)
(0.0002199170417 2.568342652e-06 0)
(0.0002188742008 2.402241956e-06 0)
(0.0002178767886 2.255035049e-06 0)
(0.0002169218013 2.125948334e-06 0)
(0.0002160059652 2.014385778e-06 0)
(0.0002151257731 1.919883951e-06 0)
(0.0002142775131 1.842070089e-06 0)
(0.0002134572932 1.78062394e-06 0)
(0.0002126610654 1.735244278e-06 0)
(0.0002118846486 1.705620269e-06 0)
(0.0002111237548 1.691407262e-06 0)
(0.000210374017 1.692206515e-06 0)
(0.0002096310214 1.707548282e-06 0)
(0.0002088903417 1.7368772e-06 0)
(0.0002081475747 1.779540279e-06 0)
(0.0002073983767 1.834779403e-06 0)
(0.0002066385023 1.90172771e-06 0)
(0.0002187705646 1.485666866e-06 0)
(0.0002194978253 4.321944133e-06 0)
(0.0002207755452 6.7231477e-06 0)
(0.0002224199373 8.577007209e-06 0)
(0.0002242723368 9.978426693e-06 0)
(0.0002262995305 1.103113117e-05 0)
(0.0002284963703 1.178318515e-05 0)
(0.0002308065266 1.226753616e-05 0)
(0.0002331428506 1.252177273e-05 0)
(0.000235426751 1.258141207e-05 0)
(0.0002375976111 1.247630167e-05 0)
(0.0002396081312 1.223390805e-05 0)
(0.0002414234781 1.18815084e-05 0)
(0.0002430230276 1.144533994e-05 0)
(0.0002443998252 1.094938858e-05 0)
(0.0002455578132 1.0414857e-05 0)
(0.000246508669 9.859983589e-06 0)
(0.0002472691231 9.299907425e-06 0)
(0.0002478587722 8.746633795e-06 0)
(0.0002482983022 8.209189352e-06 0)
(0.0002486081461 7.693939243e-06 0)
(0.0002488075819 7.204987257e-06 0)
(0.0002489141969 6.744593565e-06 0)
(0.0002489436229 6.313593025e-06 0)
(0.0002489094853 5.911818462e-06 0)
(0.0002488234898 5.538435964e-06 0)
(0.000248695563 5.192202256e-06 0)
(0.0002485340164 4.871667809e-06 0)
(0.0002483457286 4.57533401e-06 0)
(0.0002481363315 4.301767583e-06 0)
(0.0002479103831 4.049677142e-06 0)
(0.0002476715214 3.817958449e-06 0)
(0.0002474225952 3.605714998e-06 0)
(0.0002471657745 3.412259723e-06 0)
(0.0002469026416 3.23710283e-06 0)
(0.0002466342645 3.079930121e-06 0)
(0.0002463612574 2.940575036e-06 0)
(0.0002460838284 2.81898673e-06 0)
(0.0002458018195 2.715196197e-06 0)
(0.0002455147402 2.629281434e-06 0)
(0.0002452217964 2.561334062e-06 0)
(0.0002449219175 2.511428443e-06 0)
(0.0002446137818 2.479593002e-06 0)
(0.0002442958427 2.465783916e-06 0)
(0.0002439663577 2.469862612e-06 0)
(0.0002436234168 2.491576558e-06 0)
(0.0002432649737 2.530541605e-06 0)
(0.0002428888791 2.586227564e-06 0)
(0.000242492917 2.657948818e-06 0)
(0.0002420748418 2.744859177e-06 0)
(0.0002187114076 1.032244505e-06 0)
(0.0002191175542 3.001264319e-06 0)
(0.0002199337607 4.75119889e-06 0)
(0.0002210782494 6.223991056e-06 0)
(0.0002224164301 7.432309415e-06 0)
(0.0002238659072 8.40112733e-06 0)
(0.0002253920669 9.138393708e-06 0)
(0.0002269668909 9.651353301e-06 0)
(0.0002285576888 9.960448694e-06 0)
(0.0002301367517 1.009438017e-05 0)
(0.0002316850788 1.008194059e-05 0)
(0.0002331883396 9.949691192e-06 0)
(0.0002346340262 9.722417206e-06 0)
(0.0002360119473 9.422943482e-06 0)
(0.0002373152399 9.071488235e-06 0)
(0.0002385403605 8.685354595e-06 0)
(0.0002396865178 8.278978191e-06 0)
(0.0002407551285 7.864092897e-06 0)
(0.0002417493557 7.449925913e-06 0)
(0.000242673634 7.043445778e-06 0)
(0.0002435331854 6.649667347e-06 0)
(0.0002443335925 6.271981901e-06 0)
(0.0002450804642 5.912481295e-06 0)
(0.0002457791913 5.572262811e-06 0)
(0.0002464347823 5.251705237e-06 0)
(0.0002470517652 4.950693586e-06 0)
(0.0002476341398 4.668799108e-06 0)
(0.0002481853658 4.405427135e-06 0)
(0.0002487083791 4.159934673e-06 0)
(0.0002492056258 3.931717079e-06 0)
(0.0002496791044 3.720266515e-06 0)
(0.0002501304113 3.525207244e-06 0)
(0.0002505607839 3.346312572e-06 0)
(0.0002509711402 3.18350723e-06 0)
(0.0002513621138 3.036858366e-06 0)
(0.0002517340841 2.906558766e-06 0)
(0.0002520871997 2.792904521e-06 0)
(0.0002524213984 2.696268483e-06 0)
(0.0002527364218 2.617071623e-06 0)
(0.0002530318283 2.555749442e-06 0)
(0.0002533070054 2.51272289e-06 0)
(0.0002535611797 2.488370035e-06 0)
(0.0002537934265 2.482996938e-06 0)
(0.000254002682 2.496808292e-06 0)
(0.0002541877589 2.529882674e-06 0)
(0.0002543473618 2.582151747e-06 0)
(0.0002544801051 2.653380482e-06 0)
(0.0002545845358 2.743151602e-06 0)
(0.0002546591599 2.850853738e-06 0)
(0.0002547024688 2.975673291e-06 0)
(0.0002186958505 7.885677352e-07 0)
(0.0002189834237 2.332647401e-06 0)
(0.000219579477 3.768375829e-06 0)
(0.0002204448756 5.031821681e-06 0)
(0.0002214872589 6.096663623e-06 0)
(0.0002226365677 6.961327388e-06 0)
(0.0002238547347 7.630150709e-06 0)
(0.0002251139092 8.110557886e-06 0)
(0.000226385567 8.4169145e-06 0)
(0.0002276444947 8.569496451e-06 0)
(0.0002288732296 8.590455665e-06 0)
(0.0002300611932 8.501544046e-06 0)
(0.0002312021195 8.323673936e-06 0)
(0.0002322927696 8.076589332e-06 0)
(0.0002333325394 7.778218985e-06 0)
(0.0002343229495 7.444180168e-06 0)
(0.0002352669467 7.087642238e-06 0)
(0.0002361683222 6.719419633e-06 0)
(0.0002370313271 6.348152285e-06 0)
(0.0002378603974 5.980530532e-06 0)
(0.000238659923 5.621555795e-06 0)
(0.0002394340636 5.274817359e-06 0)
(0.0002401866198 4.9427618e-06 0)
(0.0002409209539 4.626940797e-06 0)
(0.000241639949 4.32823165e-06 0)
(0.0002423459982 4.047027465e-06 0)
(0.0002430410172 3.783396389e-06 0)
(0.0002437264713 3.537212138e-06 0)
(0.000244403409 3.308257894e-06 0)
(0.0002450725018 3.096305093e-06 0)
(0.000245734085 2.90116923e-06 0)
(0.0002463881993 2.722747374e-06 0)
(0.0002470346279 2.56104003e-06 0)
(0.0002476729308 2.416160407e-06 0)
(0.0002483024735 2.288332663e-06 0)
(0.0002489224532 2.177882196e-06 0)
(0.0002495319183 2.085219958e-06 0)
(0.0002501297847 2.010822242e-06 0)
(0.0002507148441 1.955213335e-06 0)
(0.0002512857762 1.918913097e-06 0)
(0.000251841164 1.90242633e-06 0)
(0.0002523794998 1.906213304e-06 0)
(0.0002528991891 1.930657041e-06 0)
(0.0002533985606 1.976028693e-06 0)
(0.000253875883 2.042469797e-06 0)
(0.0002543293782 2.129962057e-06 0)
(0.0002547572344 2.238300004e-06 0)
(0.000255157627 2.367074342e-06 0)
(0.0002555287403 2.515657304e-06 0)
(0.0002558687927 2.683190622e-06 0)
(0.0002186872718 6.177932585e-07 0)
(0.0002189026174 1.833015664e-06 0)
(0.0002193491406 2.977438134e-06 0)
(0.0002200084275 4.001715332e-06 0)
(0.0002208234954 4.880032249e-06 0)
(0.0002217461358 5.606746735e-06 0)
(0.0002227454659 6.183974903e-06 0)
(0.0002237969721 6.616157689e-06 0)
(0.0002248759942 6.911114231e-06 0)
(0.000225959637 7.08073447e-06 0)
(0.0002270300216 7.139454237e-06 0)
(0.0002280746912 7.102543189e-06 0)
(0.0002290853486 6.98528702e-06 0)
(0.0002300568874 6.802578671e-06 0)
(0.0002309869794 6.568459845e-06 0)
(0.0002318756805 6.295693615e-06 0)
(0.0002327248636 5.995525388e-06 0)
(0.0002335376372 5.677617282e-06 0)
(0.0002343178747 5.350076045e-06 0)
(0.0002350698521 5.019534601e-06 0)
(0.0002357979571 4.691278555e-06 0)
(0.0002365064595 4.369407006e-06 0)
(0.0002371993464 4.057010151e-06 0)
(0.0002378802144 3.756348519e-06 0)
(0.0002385522084 3.469024272e-06 0)
(0.0002392179946 3.196138726e-06 0)
(0.0002398797585 2.938431293e-06 0)
(0.0002405392195 2.696395483e-06 0)
(0.0002411976563 2.470375466e-06 0)
(0.0002418559377 2.26064462e-06 0)
(0.0002425145575 2.067463806e-06 0)
(0.0002431736699 1.89112393e-06 0)
(0.0002438331242 1.731971485e-06 0)
(0.0002444924947 1.590423122e-06 0)
(0.0002451511092 1.466970768e-06 0)
(0.0002458080739 1.362178675e-06 0)
(0.0002464622956 1.276669021e-06 0)
(0.0002471125081 1.211095806e-06 0)
(0.0002477572546 1.166201533e-06 0)
(0.000248394915 1.142640124e-06 0)
(0.0002490237527 1.141056523e-06 0)
(0.0002496419012 1.162044921e-06 0)
(0.0002502473691 1.206118596e-06 0)
(0.0002508380722 1.273623771e-06 0)
(0.0002514118529 1.364760234e-06 0)
(0.0002519664809 1.479559876e-06 0)
(0.000252499684 1.617841082e-06 0)
(0.000253009181 1.779185652e-06 0)
(0.0002534927072 1.962922367e-06 0)
(0.0002539480426 2.168113316e-06 0)
(0.0002186809386 4.872163612e-07 0)
(0.0002188463151 1.446831491e-06 0)
(0.0002191914461 2.358227011e-06 0)
(0.0002197084599 3.187400268e-06 0)
(0.0002203603593 3.912947888e-06 0)
(0.000221112922 4.525788032e-06 0)
(0.0002219415032 5.023239033e-06 0)
(0.0002228256008 5.405740722e-06 0)
(0.0002237453215 5.676932553e-06 0)
(0.0002246822285 5.843969568e-06 0)
(0.0002256211261 5.916627225e-06 0)
(0.0002265504977 5.905998159e-06 0)
(0.000227461933 5.823628e-06 0)
(0.0002283495536 5.681053593e-06 0)
(0.0002292097226 5.489434403e-06 0)
(0.0002300408008 5.259205989e-06 0)
(0.0002308427976 4.999831148e-06 0)
(0.0002316169714 4.719675742e-06 0)
(0.0002323654694 4.425974963e-06 0)
(0.0002330910299 4.124856015e-06 0)
(0.0002337967321 3.82140284e-06 0)
(0.0002344857866 3.519753761e-06 0)
(0.0002351613688 3.223220342e-06 0)
(0.0002358264946 2.934415445e-06 0)
(0.0002364839336 2.655379423e-06 0)
(0.0002371361533 2.387700683e-06 0)
(0.0002377852846 2.13262853e-06 0)
(0.0002384331048 1.891168768e-06 0)
(0.0002390810394 1.664165373e-06 0)
(0.0002397301672 1.452363974e-06 0)
(0.0002403812317 1.256468692e-06 0)
(0.000241034655 1.077191867e-06 0)
(0.0002416905542 9.152667144e-07 0)
(0.0002423487607 7.714694047e-07 0)
(0.0002430088394 6.466201754e-07 0)
(0.0002436700992 5.415879385e-07 0)
(0.0002443315937 4.572832159e-07 0)
(0.0002449922349 3.946463179e-07 0)
(0.0002456506246 3.545411866e-07 0)
(0.0002463050938 3.379113498e-07 0)
(0.0002469539026 3.456228603e-07 0)
(0.0002475951183 3.784418897e-07 0)
(0.0002482265803 4.370032779e-07 0)
(0.0002488459658 5.218388656e-07 0)
(0.000249450896 6.332822656e-07 0)
(0.0002500388744 7.714316934e-07 0)
(0.0002506073036 9.361454223e-07 0)
(0.0002511535462 1.12701404e-06 0)
(0.0002516749615 1.343331434e-06 0)
(0.0002521689417 1.584079594e-06 0)
(0.0002186766597 3.853880652e-07 0)
(0.0002188081998 1.145482931e-06 0)
(0.0002190836545 1.871718036e-06 0)
(0.0002194996835 2.539443128e-06 0)
(0.000220030633 3.130939768e-06 0)
(0.0002206519552 3.636351263e-06 0)
(0.0002213450576 4.051087201e-06 0)
(0.0002220938098 4.373919258e-06 0)
(0.0002228824354 4.606530062e-06 0)
(0.000223696125 4.753364512e-06 0)
(0.0002245221994 4.821031989e-06 0)
(0.0002253505157 4.817469621e-06 0)
(0.0002261732508 4.751277296e-06 0)
(0.0002269845868 4.631291814e-06 0)
(0.0002277805028 4.466264557e-06 0)
(0.0002285585946 4.264575278e-06 0)
(0.0002293178396 4.034008645e-06 0)
(0.0002300583233 3.781618214e-06 0)
(0.0002307809753 3.513665188e-06 0)
(0.0002314873402 3.23560798e-06 0)
(0.000232179378 2.952127936e-06 0)
(0.0002328592926 2.667182085e-06 0)
(0.0002335293883 2.38407664e-06 0)
(0.0002341919534 2.105555447e-06 0)
(0.0002348491716 1.833890302e-06 0)
(0.0002355030631 1.570968526e-06 0)
(0.0002361554381 1.318376293e-06 0)
(0.000236807862 1.077475459e-06 0)
(0.0002374616343 8.494934223e-07 0)
(0.0002381177819 6.355629897e-07 0)
(0.0002387770726 4.367564026e-07 0)
(0.0002394399989 2.541308745e-07 0)
(0.0002401067671 8.877137284e-08 0)
(0.0002407773121 -5.820830328e-08 0)
(0.0002414513023 -1.856522103e-07 0)
(0.0002421281544 -2.923692178e-07 0)
(0.0002428070346 -3.771414365e-07 0)
(0.000243486759 -4.387289955e-07 0)
(0.0002441659852 -4.759771913e-07 0)
(0.0002448431869 -4.876620003e-07 0)
(0.000245516472 -4.726497115e-07 0)
(0.0002461837278 -4.29922382e-07 0)
(0.0002468426846 -3.586138682e-07 0)
(0.0002474908833 -2.579853338e-07 0)
(0.0002481256156 -1.275266668e-07 0)
(0.0002487440367 3.300044523e-08 0)
(0.0002493432094 2.235518096e-07 0)
(0.000249920116 4.437666625e-07 0)
(0.0002504717082 6.929401611e-07 0)
(0.0002509949362 9.700026234e-07 0)
(0.0002186735922 3.037010131e-07 0)
(0.0002187807904 9.02869776e-07 0)
(0.0002190056175 1.476913876e-06 0)
(0.0002193469608 2.007516934e-06 0)
(0.0002197864044 2.480677521e-06 0)
(0.0002203062502 2.887637801e-06 0)
(0.0002208927904 3.223542392e-06 0)
(0.0002215335538 3.486311906e-06 0)
(0.0002222159647 3.676230235e-06 0)
(0.0002229280022 3.795743534e-06 0)
(0.0002236591123 3.849083997e-06 0)
(0.0002244005441 3.841746275e-06 0)
(0.0002251452714 3.780002107e-06 0)
(0.0002258878318 3.67053182e-06 0)
(0.0002266242026 3.520137413e-06 0)
(0.0002273516768 3.335499893e-06 0)
(0.0002280687025 3.122983985e-06 0)
(0.0002287746908 2.88850314e-06 0)
(0.0002294698225 2.637440954e-06 0)
(0.0002301548698 2.374615633e-06 0)
(0.0002308310364 2.104278645e-06 0)
(0.0002314998158 1.830137259e-06 0)
(0.0002321628737 1.555394582e-06 0)
(0.0002328219473 1.282803338e-06 0)
(0.0002334787572 1.014734221e-06 0)
(0.0002341349428 7.532529888e-07 0)
(0.0002347920123 5.00186114e-07 0)
(0.0002354513371 2.571599342e-07 0)
(0.0002361141055 2.566024799e-08 0)
(0.0002367812534 -1.928856353e-07 0)
(0.0002374534847 -3.97072547e-07 0)
(0.0002381312907 -5.855158798e-07 0)
(0.0002388149184 -7.568098898e-07 0)
(0.0002395043512 -9.095130041e-07 0)
(0.0002401993139 -1.042137827e-06 0)
(0.0002408992538 -1.153163269e-06 0)
(0.0002416033412 -1.241044551e-06 0)
(0.0002423104582 -1.304232288e-06 0)
(0.0002430192237 -1.341117122e-06 0)
(0.0002437279782 -1.350211635e-06 0)
(0.0002444347515 -1.330075546e-06 0)
(0.000245137294 -1.279366817e-06 0)
(0.000245833095 -1.196883826e-06 0)
(0.0002465193821 -1.081665925e-06 0)
(0.000247193141 -9.329879666e-07 0)
(0.000247851164 -7.503995622e-07 0)
(0.0002484900785 -5.337884691e-07 0)
(0.0002491063817 -2.8342098e-07 0)
(0.0002496964897 2.97380768e-11 0)
(0.0002502568024 3.154547855e-07 0)
(0.0002186712957 2.366163522e-07 0)
(0.0002187603309 7.031766603e-07 0)
(0.0002189473106 1.150430767e-06 0)
(0.0002192323418 1.564596769e-06 0)
(0.0002196017691 1.934741154e-06 0)
(0.0002200425566 2.253452181e-06 0)
(0.0002205445634 2.516062365e-06 0)
(0.0002210982104 2.72004346e-06 0)
(0.0002216935314 2.864787093e-06 0)
(0.0002223208276 2.951453364e-06 0)
(0.000222971419 2.982699473e-06 0)
(0.0002236379067 2.962315931e-06 0)
(0.0002243141463 2.894868745e-06 0)
(0.0002249951795 2.785401107e-06 0)
(0.0002256771801 2.639190738e-06 0)
(0.0002263573842 2.461546651e-06 0)
(0.0002270339836 2.257642291e-06 0)
(0.0002277059948 2.032393397e-06 0)
(0.000228373118 1.7903779e-06 0)
(0.0002290356065 1.53578687e-06 0)
(0.0002296941424 1.272406196e-06 0)
(0.0002303497186 1.00362342e-06 0)
(0.0002310035353 7.324583157e-07 0)
(0.0002316569178 4.615949226e-07 0)
(0.0002323112603 1.93402237e-07 0)
(0.0002329679589 -6.999519835e-08 0)
(0.000233628318 -3.266570863e-07 0)
(0.0002342935071 -5.747590697e-07 0)
(0.000234964597 -8.12583295e-07 0)
(0.000235642531 -1.038465611e-06 0)
(0.0002363280388 -1.250740816e-06 0)
(0.000237021621 -1.447725558e-06 0)
(0.0002377235633 -1.627711157e-06 0)
(0.0002384339117 -1.788935208e-06 0)
(0.0002391524418 -1.92958397e-06 0)
(0.0002398786472 -2.047790886e-06 0)
(0.0002406117298 -2.1416442e-06 0)
(0.0002413505815 -2.209205894e-06 0)
(0.0002420937752 -2.248529227e-06 0)
(0.0002428395532 -2.257715838e-06 0)
(0.0002435858154 -2.234936647e-06 0)
(0.0002443301198 -2.178476856e-06 0)
(0.0002450696942 -2.086789094e-06 0)
(0.000245801448 -1.9585529e-06 0)
(0.0002465219889 -1.792720518e-06 0)
(0.000247227655 -1.58857746e-06 0)
(0.0002479145589 -1.34580045e-06 0)
(0.0002485786371 -1.064503885e-06 0)
(0.0002492157067 -7.452848288e-07 0)
(0.0002498215438 -3.89259901e-07 0)
(0.0002186695384 1.805252169e-07 0)
(0.0002187446994 5.359502838e-07 0)
(0.0002189027146 8.760905437e-07 0)
(0.000219144352 1.190393477e-06 0)
(0.0002194591797 1.470266124e-06 0)
(0.0002198373887 1.709553602e-06 0)
(0.0002202714509 1.904050177e-06 0)
(0.0002207540661 2.051178273e-06 0)
(0.0002212773956 2.149895353e-06 0)
(0.0002218336536 2.200588008e-06 0)
(0.0002224157421 2.204866546e-06 0)
(0.0002230174698 2.165306209e-06 0)
(0.000223633552 2.085191884e-06 0)
(0.0002242595938 1.96829236e-06 0)
(0.0002248920829 1.81866621e-06 0)
(0.0002255283587 1.640496762e-06 0)
(0.0002261665481 1.437946434e-06 0)
(0.0002268054788 1.215055342e-06 0)
(0.0002274445768 9.756696609e-07 0)
(0.0002280837668 7.233909567e-07 0)
(0.0002287233837 4.615496758e-07 0)
(0.000229364095 1.931872638e-07 0)
(0.0002300068117 -7.892647961e-08 0)
(0.0002306525716 -3.522667732e-07 0)
(0.0002313024921 -6.245063805e-07 0)
(0.00023195776 -8.934984774e-07 0)
(0.0002326195802 -1.157242045e-06 0)
(0.0002332891019 -1.413806727e-06 0)
(0.000233967357 -1.661298786e-06 0)
(0.0002346552543 -1.897852905e-06 0)
(0.000235353554 -2.121592008e-06 0)
(0.0002360628332 -2.330582632e-06 0)
(0.0002367834607 -2.522822879e-06 0)
(0.0002375155677 -2.696236541e-06 0)
(0.0002382590189 -2.848665807e-06 0)
(0.0002390133868 -2.977871223e-06 0)
(0.0002397779262 -3.081544784e-06 0)
(0.00024055155 -3.1573305e-06 0)
(0.0002413328064 -3.202851665e-06 0)
(0.0002421198594 -3.215751229e-06 0)
(0.0002429104728 -3.193736025e-06 0)
(0.0002437020022 -3.13462865e-06 0)
(0.000244491395 -3.03642815e-06 0)
(0.0002452751998 -2.897377791e-06 0)
(0.0002460495845 -2.716033262e-06 0)
(0.0002468103702 -2.491330458e-06 0)
(0.0002475530763 -2.222653829e-06 0)
(0.000248272978 -1.909899882e-06 0)
(0.0002489651738 -1.553533296e-06 0)
(0.0002496246707 -1.15463104e-06 0)
(0.0002186681633 1.329112556e-07 0)
(0.0002187324794 3.938046119e-07 0)
(0.0002188678205 6.422384212e-07 0)
(0.0002190753125 8.700132942e-07 0)
(0.0002193467975 1.070335775e-06 0)
(0.0002196747632 1.238157443e-06 0)
(0.0002200535959 1.369832643e-06 0)
(0.0002204777473 1.462936817e-06 0)
(0.0002209410662 1.51624137e-06 0)
(0.0002214373112 1.5296524e-06 0)
(0.0002219606977 1.504066952e-06 0)
(0.0002225060877 1.441190945e-06 0)
(0.0002230690008 1.343358086e-06 0)
(0.000223645622 1.213360288e-06 0)
(0.0002242328234 1.054293616e-06 0)
(0.000224828151 8.694449553e-07 0)
(0.0002254297939 6.621375174e-07 0)
(0.0002260365409 4.356711194e-07 0)
(0.0002266477056 1.932409419e-07 0)
(0.0002272630509 -6.210209206e-08 0)
(0.0002278827082 -3.274781577e-07 0)
(0.0002285071103 -6.001840299e-07 0)
(0.0002291369462 -8.777059592e-07 0)
(0.0002297731162 -1.157703721e-06 0)
(0.0002304166542 -1.437957017e-06 0)
(0.0002310686474 -1.716356394e-06 0)
(0.000231730216 -1.990874141e-06 0)
(0.0002324024716 -2.259534165e-06 0)
(0.0002330864686 -2.520358205e-06 0)
(0.0002337831818 -2.771330235e-06 0)
(0.0002344934682 -3.010371135e-06 0)
(0.0002352180204 -3.235312588e-06 0)
(0.0002359573329 -3.443880533e-06 0)
(0.0002367116712 -3.633684195e-06 0)
(0.0002374810325 -3.802210643e-06 0)
(0.0002382651077 -3.946827864e-06 0)
(0.0002390632448 -4.06479691e-06 0)
(0.0002398744122 -4.153293792e-06 0)
(0.0002406971646 -4.209441405e-06 0)
(0.0002415296115 -4.230352631e-06 0)
(0.000242369391 -4.213183757e-06 0)
(0.0002432136512 -4.155197683e-06 0)
(0.0002440590422 -4.053836552e-06 0)
(0.0002449017189 -3.906802136e-06 0)
(0.0002457373576 -3.712140362e-06 0)
(0.0002465611884 -3.468327656e-06 0)
(0.0002473680445 -3.174357246e-06 0)
(0.0002481524275 -2.829820276e-06 0)
(0.0002489085894 -2.434977992e-06 0)
(0.0002496306298 -1.990820735e-06 0)
(0.0002186670633 9.19785384e-08 0)
(0.0002187227207 2.714560554e-07 0)
(0.0002188399493 4.404845444e-07 0)
(0.0002190200609 5.926199042e-07 0)
(0.0002192565466 7.224586071e-07 0)
(0.0002195435595 8.258745191e-07 0)
(0.000219876893 8.99757545e-07 0)
(0.0002202523315 9.419264927e-07 0)
(0.0002206650497 9.511205156e-07 0)
(0.0002211100539 9.269637486e-07 0)
(0.0002215826529 8.698779032e-07 0)
(0.0002220786176 7.809580875e-07 0)
(0.0002225941942 6.618424054e-07 0)
(0.0002231261202 5.145852372e-07 0)
(0.0002236716876 3.415378701e-07 0)
(0.00022422871 1.452208423e-07 0)
(0.0002247955164 -7.17165363e-08 0)
(0.0002253709549 -3.066104985e-07 0)
(0.0002259543104 -5.568353541e-07 0)
(0.000226545278 -8.198344313e-07 0)
(0.0002271439197 -1.093149021e-06 0)
(0.0002277506002 -1.374422365e-06 0)
(0.0002283659261 -1.661406514e-06 0)
(0.000228990711 -1.951954348e-06 0)
(0.0002296259177 -2.244013865e-06 0)
(0.0002302726089 -2.53558646e-06 0)
(0.0002309319225 -2.824689466e-06 0)
(0.0002316050297 -3.109327368e-06 0)
(0.0002322930824 -3.38745149e-06 0)
(0.0002329971753 -3.656928693e-06 0)
(0.0002337183104 -3.915517861e-06 0)
(0.0002344573523 -4.160842752e-06 0)
(0.0002352149856 -4.390369937e-06 0)
(0.0002359916708 -4.601396508e-06 0)
(0.0002367875974 -4.791044712e-06 0)
(0.0002376026341 -4.956263916e-06 0)
(0.0002384362793 -5.093842424e-06 0)
(0.000239287611 -5.200430703e-06 0)
(0.0002401552373 -5.272576716e-06 0)
(0.0002410372514 -5.306774438e-06 0)
(0.0002419311912 -5.299525902e-06 0)
(0.0002428340076 -5.247416362e-06 0)
(0.0002437420445 -5.14720177e-06 0)
(0.0002446510326 -4.995906724e-06 0)
(0.0002455561009 -4.790929826e-06 0)
(0.0002464518078 -4.530153001e-06 0)
(0.0002473321938 -4.212050969e-06 0)
(0.0002481908566 -3.83579584e-06 0)
(0.000249021047 -3.401351718e-06 0)
(0.0002498157864 -2.909554087e-06 0)
(0.000218666161 5.642131501e-08 0)
(0.0002187147511 1.650761416e-07 0)
(0.0002188172182 2.647330474e-07 0)
(0.0002189749598 3.502629269e-07 0)
(0.000219182686 4.173378585e-07 0)
(0.0002194357697 4.625989668e-07 0)
(0.00021973106 4.833887132e-07 0)
(0.0002200653731 4.777951153e-07 0)
(0.000220434909 4.446163262e-07 0)
(0.0002208356628 3.833416606e-07 0)
(0.0002212638468 2.940886752e-07 0)
(0.0002217160133 1.775229869e-07 0)
(0.0002221890592 3.476432929e-08 0)
(0.0002226802468 -1.327058407e-07 0)
(0.0002231872246 -3.23129739e-07 0)
(0.0002237081076 -5.345810153e-07 0)
(0.0002242414605 -7.649910332e-07 0)
(0.0002247862348 -1.012244262e-06 0)
(0.0002253417933 -1.274208555e-06 0)
(0.0002259078684 -1.548771563e-06 0)
(0.0002264845183 -1.833865643e-06 0)
(0.0002270720887 -2.127485465e-06 0)
(0.0002276711762 -2.427680349e-06 0)
(0.000228282595 -2.732546802e-06 0)
(0.0002289073379 -3.040212478e-06 0)
(0.0002295465327 -3.348801562e-06 0)
(0.0002302014066 -3.656404319e-06 0)
(0.0002308732482 -3.961049473e-06 0)
(0.0002315633646 -4.260667936e-06 0)
(0.0002322730399 -4.553055966e-06 0)
(0.0002330034944 -4.835844678e-06 0)
(0.0002337558374 -5.106472327e-06 0)
(0.0002345310164 -5.362160583e-06 0)
(0.000235329764 -5.599897946e-06 0)
(0.0002361525401 -5.816430659e-06 0)
(0.0002369994704 -6.008262067e-06 0)
(0.0002378702821 -6.171662819e-06 0)
(0.0002387642372 -6.302693905e-06 0)
(0.000239680067 -6.397244381e-06 0)
(0.0002406159076 -6.451085376e-06 0)
(0.000241569242 -6.459941361e-06 0)
(0.0002425368504 -6.419578781e-06 0)
(0.0002435147736 -6.325911235e-06 0)
(0.0002444982947 -6.175119263e-06 0)
(0.0002454819411 -5.963781585e-06 0)
(0.0002464595118 -5.689013635e-06 0)
(0.0002474241332 -5.348608198e-06 0)
(0.0002483683438 -4.941171635e-06 0)
(0.0002492842084 -4.466248498e-06 0)
(0.0002501634591 -3.924427329e-06 0)
(0.0002186654168 2.519088851e-08 0)
(0.0002187081642 7.161476721e-08 0)
(0.0002187983892 1.101385762e-07 0)
(0.0002189375121 1.365964303e-07 0)
(0.0002191211943 1.474764457e-07 0)
(0.0002193456874 1.400255853e-07 0)
(0.000219608616 1.121111502e-07 0)
(0.0002199076304 6.202604855e-08 0)
(0.0002202397494 -1.13896113e-08 0)
(0.0002206017656 -1.087206449e-07 0)
(0.0002209906214 -2.300364539e-07 0)
(0.0002214035163 -3.749710824e-07 0)
(0.0002218378993 -5.427907651e-07 0)
(0.0002222914983 -7.324545521e-07 0)
(0.0002227623639 -9.426805724e-07 0)
(0.000223248904 -1.171994953e-06 0)
(0.0002237498926 -1.418832117e-06 0)
(0.0002242644618 -1.681544823e-06 0)
(0.0002247920946 -1.958447321e-06 0)
(0.0002253326028 -2.247847055e-06 0)
(0.0002258861081 -2.548060229e-06 0)
(0.000226453019 -2.857418582e-06 0)
(0.0002270339985 -3.174266404e-06 0)
(0.0002276299357 -3.496950556e-06 0)
(0.0002282419181 -3.823803106e-06 0)
(0.0002288711967 -4.153113537e-06 0)
(0.0002295191518 -4.483094958e-06 0)
(0.0002301872596 -4.811849147e-06 0)
(0.0002308770533 -5.137328383e-06 0)
(0.0002315900806 -5.45729627e-06 0)
(0.0002323278585 -5.769292047e-06 0)
(0.0002330918233 -6.070598007e-06 0)
(0.0002338832729 -6.358210391e-06 0)
(0.0002347033051 -6.62881623e-06 0)
(0.0002355527484 -6.878777903e-06 0)
(0.0002364320871 -7.104126977e-06 0)
(0.0002373413801 -7.300570042e-06 0)
(0.0002382801758 -7.463509382e-06 0)
(0.0002392474252 -7.588081314e-06 0)
(0.0002402413944 -7.669214664e-06 0)
(0.0002412595829 -7.701711233e-06 0)
(0.0002422986502 -7.68034905e-06 0)
(0.0002433543573 -7.600008107e-06 0)
(0.0002444215282 -7.455816828e-06 0)
(0.0002454940386 -7.24331592e-06 0)
(0.0002465648351 -6.958634536e-06 0)
(0.0002476259911 -6.598672007e-06 0)
(0.0002486688033 -6.161276508e-06 0)
(0.0002496839264 -5.645410556e-06 0)
(0.0002506615463 -5.051292972e-06 0)
(0.0002186648238 -2.304786035e-09 0)
(0.0002187027593 -1.076250624e-08 0)
(0.000218782687 -2.635493717e-08 0)
(0.0002189059926 -5.248552733e-08 0)
(0.0002190691039 -9.201583775e-08 0)
(0.0002192691274 -1.472031782e-07 0)
(0.0002195042414 -2.198201568e-07 0)