/*--------------------------------*- C++ -*----------------------------------*\
| =========                 |                                                 |
| \\      /  F ield         | foam-extend: Open Source CFD                    |
|  \\    /   O peration     | Version:     4.1                                |
|   \\  /    A nd           | Web:         http://www.foam-extend.org         |
|    \\/     M anipulation  |                                                 |
\*---------------------------------------------------------------------------*/
FoamFile
{
    version     2.0;
    format      ascii;
    class       volVectorField;
    location    "200000";
    object      vorticity;
}
// * * * * * * * * * * * * * * * * * * * * * * * * * * * * * * * * * * * * * //

dimensions      [0 0 -1 0 0 0 0];

internalField   nonuniform List<vector> 
15920
(
(0 -0 -0.008256752201)
(0 -0 -0.008405658473)
(0 -0 -0.008449712242)
(0 -0 -0.008324840468)
(0 -0 -0.008114354401)
(0 -0 -0.007876320115)
(0 -0 -0.007621674197)
(0 -0 -0.007351650574)
(0 -0 -0.007074725084)
(0 -0 -0.006801767293)
(0 -0 -0.006540365449)
(0 -0 -0.006294683471)
(0 -0 -0.006067070164)
(0 -0 -0.005858782129)
(0 -0 -0.005670075484)
(0 -0 -0.005500365017)
(0 -0 -0.005348515305)
(0 -0 -0.005213097393)
(0 -0 -0.005092556034)
(0 -0 -0.004985317435)
(0 -0 -0.004889863638)
(0 -0 -0.004804780697)
(0 -0 -0.004728784385)
(0 -0 -0.004660728771)
(0 -0 -0.00459960341)
(0 -0 -0.004544526528)
(0 -0 -0.00449473394)
(0 -0 -0.004449565806)
(0 -0 -0.004408452857)
(0 -0 -0.00437090301)
(0 -0 -0.004336488951)
(0 -0 -0.00430483692)
(0 -0 -0.004275616814)
(0 -0 -0.004248533598)
(0 -0 -0.004223319995)
(0 -0 -0.004199730374)
(0 -0 -0.004177535752)
(0 -0 -0.004156519835)
(0 -0 -0.004136475993)
(0 -0 -0.004117204975)
(0 -0 -0.004098513271)
(0 -0 -0.004080212109)
(0 -0 -0.004062117111)
(0 -0 -0.004044048491)
(0 -0 -0.004025831597)
(0 -0 -0.004007297667)
(0 -0 -0.003988284729)
(0 -0 -0.003968638656)
(0 -0 -0.003948214357)
(0 -0 -0.003926877085)
(0 -0 0.0003536200358)
(0 -0 -9.828326057e-06)
(0 -0 -0.0003975311363)
(0 -0 -0.0007983984081)
(0 -0 -0.00119564432)
(0 -0 -0.00157307063)
(0 -0 -0.00192157833)
(0 -0 -0.00223614713)
(0 -0 -0.002512851691)
(0 -0 -0.002749486483)
(0 -0 -0.002946432537)
(0 -0 -0.003106172625)
(0 -0 -0.003232301937)
(0 -0 -0.003328868731)
(0 -0 -0.003400049948)
(0 -0 -0.00344992569)
(0 -0 -0.003482291424)
(0 -0 -0.003500540824)
(0 -0 -0.003507622483)
(0 -0 -0.003506043046)
(0 -0 -0.003497893457)
(0 -0 -0.003484887347)
(0 -0 -0.003468406155)
(0 -0 -0.003449546937)
(0 -0 -0.003429168288)
(0 -0 -0.00340793165)
(0 -0 -0.003386337975)
(0 -0 -0.003364759686)
(0 -0 -0.003343467874)
(0 -0 -0.003322654925)
(0 -0 -0.003302452977)
(0 -0 -0.003282948744)
(0 -0 -0.003264195204)
(0 -0 -0.003246220688)
(0 -0 -0.003229035786)
(0 -0 -0.003212638514)
(0 -0 -0.003197018097)
(0 -0 -0.003182157687)
(0 -0 -0.003168036263)
(0 -0 -0.003154629843)
(0 -0 -0.003141912159)
(0 -0 -0.003129854917)
(0 -0 -0.003118427836)
(0 -0 -0.003107598609)
(0 -0 -0.003097332881)
(0 -0 -0.003087594223)
(0 -0 -0.00307834406)
(0 -0 -0.003069541537)
(0 -0 -0.003061143377)
(0 -0 -0.003053103769)
(0 -0 0.0001734510959)
(0 -0 0.0002522622172)
(0 -0 0.0003159504513)
(0 -0 0.0003435553992)
(0 -0 0.0003294193112)
(0 -0 0.0002757589933)
(0 -0 0.0001890391141)
(0 -0 7.712447093e-05)
(0 -0 -5.213354835e-05)
(0 -0 -0.0001915135038)
(0 -0 -0.000334837032)
(0 -0 -0.0004772020821)
(0 -0 -0.000614989555)
(0 -0 -0.000745717221)
(0 -0 -0.0008678488973)
(0 -0 -0.0009805992323)
(0 -0 -0.001083746489)
(0 -0 -0.001177465722)
(0 -0 -0.001262191864)
(0 -0 -0.001338514344)
(0 -0 -0.001407099565)
(0 -0 -0.001468636478)
(0 -0 -0.001523800078)
(0 -0 -0.00157322848)
(0 -0 -0.001617511945)
(0 -0 -0.001657188199)
(0 -0 -0.001692741985)
(0 -0 -0.001724607317)
(0 -0 -0.00175317133)
(0 -0 -0.001778778891)
(0 -0 -0.00180173742)
(0 -0 -0.001822321598)
(0 -0 -0.001840777726)
(0 -0 -0.001857327657)
(0 -0 -0.001872172253)
(0 -0 -0.00188549436)
(0 -0 -0.00189746135)
(0 -0 -0.001908227237)
(0 -0 -0.001917934417)
(0 -0 -0.001926715063)
(0 -0 -0.001934692221)
(0 -0 -0.001941980648)
(0 -0 -0.001948687439)
(0 -0 -0.001954912498)
(0 -0 -0.001960748861)
(0 -0 -0.001966282935)
(0 -0 -0.001971594635)
(0 -0 -0.00197675744)
(0 -0 -0.00198183836)
(0 -0 -0.001986897851)
(0 -0 0.0001465381893)
(0 -0 0.0001493578175)
(0 -0 0.000160136472)
(0 -0 0.0001791154674)
(0 -0 0.0002037377369)
(0 -0 0.0002298447202)
(0 -0 0.000253000571)
(0 -0 0.0002696540931)
(0 -0 0.0002775511498)
(0 -0 0.0002756787348)
(0 -0 0.0002640513179)
(0 -0 0.0002434332299)
(0 -0 0.0002150428515)
(0 -0 0.0001802984846)
(0 -0 0.0001406361262)
(0 -0 9.739347962e-05)
(0 -0 5.174623714e-05)
(0 -0 4.682683739e-06)
(0 -0 -4.299592905e-05)
(0 -0 -9.065982369e-05)
(0 -0 -0.0001378278022)
(0 -0 -0.0001841422229)
(0 -0 -0.0002293448526)
(0 -0 -0.0002732552824)
(0 -0 -0.0003157531754)
(0 -0 -0.0003567635873)
(0 -0 -0.0003962454166)
(0 -0 -0.0004341826061)
(0 -0 -0.0004705775846)
(0 -0 -0.000505446476)
(0 -0 -0.0005388156704)
(0 -0 -0.0005707194132)
(0 -0 -0.000601198131)
(0 -0 -0.0006302972732)
(0 -0 -0.000658066501)
(0 -0 -0.0006845591037)
(0 -0 -0.0007098315534)
(0 -0 -0.0007339431345)
(0 -0 -0.0007569556052)
(0 -0 -0.0007789328586)
(0 -0 -0.0007999405686)
(0 -0 -0.0008200458125)
(0 -0 -0.0008393166702)
(0 -0 -0.0008578218036)
(0 -0 -0.0008756300215)
(0 -0 -0.0008928098336)
(0 -0 -0.000909428992)
(0 -0 -0.0009255540421)
(0 -0 -0.0009412498743)
(0 -0 -0.0009565792864)
(0 -0 0.0001023320026)
(0 -0 0.0001032618921)
(0 -0 0.000104489532)
(0 -0 0.0001065289968)
(0 -0 0.0001101299658)
(0 -0 0.0001159113634)
(0 -0 0.0001240883626)
(0 -0 0.0001344037209)
(0 -0 0.0001462213431)
(0 -0 0.0001586824229)
(0 -0 0.0001708704041)
(0 -0 0.0001819506743)
(0 -0 0.0001912584787)
(0 -0 0.0001983319343)
(0 -0 0.0002029059944)
(0 -0 0.0002048845241)
(0 -0 0.0002043029026)
(0 -0 0.0002012897111)
(0 -0 0.000196032723)
(0 -0 0.0001887516315)
(0 -0 0.0001796778659)
(0 -0 0.0001690407166)
(0 -0 0.0001570585663)
(0 -0 0.0001439339789)
(0 -0 0.0001298514944)
(0 -0 0.0001149771798)
(0 -0 9.945925486e-05)
(0 -0 8.342929124e-05)
(0 -0 6.700364142e-05)
(0 -0 5.02848908e-05)
(0 -0 3.336321583e-05)
(0 -0 1.631759335e-05)
(0 -0 -7.831556183e-07)
(0 -0 -1.787948006e-05)
(0 -0 -3.492035009e-05)
(0 -0 -5.186261975e-05)
(0 -0 -6.867047576e-05)
(0 -0 -8.531494891e-05)
(0 -0 -0.0001017734679)
(0 -0 -0.0001180294385)
(0 -0 -0.0001340718357)
(0 -0 -0.0001498947939)
(0 -0 -0.0001654971902)
(0 -0 -0.000180882213)
(0 -0 -0.00019605692)
(0 -0 -0.0002110317822)
(0 -0 -0.0002258202179)
(0 -0 -0.0002404381265)
(0 -0 -0.0002549034239)
(0 -0 -0.0002692355859)
(0 -0 7.851309436e-05)
(0 -0 7.879393759e-05)
(0 -0 7.917175836e-05)
(0 -0 7.960363312e-05)
(0 -0 8.009633843e-05)
(0 -0 8.073260484e-05)
(0 -0 8.166278313e-05)
(0 -0 8.306746942e-05)
(0 -0 8.510735657e-05)
(0 -0 8.788082329e-05)
(0 -0 9.140233445e-05)
(0 -0 9.560342555e-05)
(0 -0 0.0001003496831)
(0 -0 0.0001054648241)
(0 -0 0.0001107549802)
(0 -0 0.0001160291797)
(0 -0 0.0001211140708)
(0 -0 0.0001258625789)
(0 -0 0.000130157394)
(0 -0 0.0001339107248)
(0 -0 0.0001370617364)
(0 -0 0.000139572811)
(0 -0 0.0001414254419)
(0 -0 0.0001426162832)
(0 -0 0.0001431536435)
(0 -0 0.0001430545301)
(0 -0 0.0001423422421)
(0 -0 0.0001410444638)
(0 -0 0.0001391917814)
(0 -0 0.0001368165445)
(0 -0 0.0001339519952)
(0 -0 0.0001306315981)
(0 -0 0.000126888521)
(0 -0 0.000122755225)
(0 -0 0.0001182631377)
(0 -0 0.0001134423868)
(0 -0 0.0001083215832)
(0 -0 0.0001029276396)
(0 -0 9.728561595e-05)
(0 -0 9.141859198e-05)
(0 -0 8.534755849e-05)
(0 -0 7.909133749e-05)
(0 -0 7.266653189e-05)
(0 -0 6.608751533e-05)
(0 -0 5.936645538e-05)
(0 -0 5.251337366e-05)
(0 -0 4.553622908e-05)
(0 -0 3.844102837e-05)
(0 -0 3.12319623e-05)
(0 -0 2.391156493e-05)
(0 -0 6.156846072e-05)
(0 -0 6.173329359e-05)
(0 -0 6.197811065e-05)
(0 -0 6.229316768e-05)
(0 -0 6.266377605e-05)
(0 -0 6.307148035e-05)
(0 -0 6.349990363e-05)
(0 -0 6.394465249e-05)
(0 -0 6.441932953e-05)
(0 -0 6.495382459e-05)
(0 -0 6.558728857e-05)
(0 -0 6.635973067e-05)
(0 -0 6.730461843e-05)
(0 -0 6.844364063e-05)
(0 -0 6.978420957e-05)
(0 -0 7.131961218e-05)
(0 -0 7.303107401e-05)
(0 -0 7.489078191e-05)
(0 -0 7.686508746e-05)
(0 -0 7.891741299e-05)
(0 -0 8.10106279e-05)
(0 -0 8.310882863e-05)
(0 -0 8.51785564e-05)
(0 -0 8.718953957e-05)
(0 -0 8.911506429e-05)
(0 -0 9.093207229e-05)
(0 -0 9.262107206e-05)
(0 -0 9.416593369e-05)
(0 -0 9.555362079e-05)
(0 -0 9.677390001e-05)
(0 -0 9.781904953e-05)
(0 -0 9.868357665e-05)
(0 -0 9.936395411e-05)
(0 -0 9.985838262e-05)
(0 -0 0.0001001665707)
(0 -0 0.000100289536)
(0 -0 0.0001002294205)
(0 -0 9.998930951e-05)
(0 -0 9.957299911e-05)
(0 -0 9.898502314e-05)
(0 -0 9.823034778e-05)
(0 -0 9.731418049e-05)
(0 -0 9.624164796e-05)
(0 -0 9.501793546e-05)
(0 -0 9.364814279e-05)
(0 -0 9.213709819e-05)
(0 -0 9.048926111e-05)
(0 -0 8.870864704e-05)
(0 -0 8.679876721e-05)
(0 -0 8.47625976e-05)
(0 -0 4.856343901e-05)
(0 -0 4.86636181e-05)
(0 -0 4.882394063e-05)
(0 -0 4.904290333e-05)
(0 -0 4.931694031e-05)
(0 -0 4.964089169e-05)
(0 -0 5.000698379e-05)
(0 -0 5.04055847e-05)
(0 -0 5.082689655e-05)
(0 -0 5.126260779e-05)
(0 -0 5.170715851e-05)
(0 -0 5.215852979e-05)
(0 -0 5.261834281e-05)
(0 -0 5.309117238e-05)
(0 -0 5.358334262e-05)
(0 -0 5.410163811e-05)
(0 -0 5.4652224e-05)
(0 -0 5.523987267e-05)
(0 -0 5.586749317e-05)
(0 -0 5.653593507e-05)
(0 -0 5.724402458e-05)
(0 -0 5.798877489e-05)
(0 -0 5.87657043e-05)
(0 -0 5.956919862e-05)
(0 -0 6.03928672e-05)
(0 -0 6.122985703e-05)
(0 -0 6.207311111e-05)
(0 -0 6.291557019e-05)
(0 -0 6.375031865e-05)
(0 -0 6.457069888e-05)
(0 -0 6.53703953e-05)
(0 -0 6.614337154e-05)
(0 -0 6.688407867e-05)
(0 -0 6.75874881e-05)
(0 -0 6.824910193e-05)
(0 -0 6.886496542e-05)
(0 -0 6.943167955e-05)
(0 -0 6.99464317e-05)
(0 -0 7.040701303e-05)
(0 -0 7.081160248e-05)
(0 -0 7.115887698e-05)
(0 -0 7.144797748e-05)
(0 -0 7.167861537e-05)
(0 -0 7.185075316e-05)
(0 -0 7.196456487e-05)
(0 -0 7.202046253e-05)
(0 -0 7.201905089e-05)
(0 -0 7.19609521e-05)
(0 -0 7.184661919e-05)
(0 -0 7.167678187e-05)
(0 -0 3.84187029e-05)
(0 -0 3.846874237e-05)
(0 -0 3.856557718e-05)
(0 -0 3.871052447e-05)
(0 -0 3.890180301e-05)
(0 -0 3.913712213e-05)
(0 -0 3.941345473e-05)
(0 -0 3.972701099e-05)
(0 -0 4.007326675e-05)
(0 -0 4.044707385e-05)
(0 -0 4.084290309e-05)
(0 -0 4.12552042e-05)
(0 -0 4.167878727e-05)
(0 -0 4.210911747e-05)
(0 -0 4.25424861e-05)
(0 -0 4.297608145e-05)
(0 -0 4.340797621e-05)
(0 -0 4.383702554e-05)
(0 -0 4.426268262e-05)
(0 -0 4.468477051e-05)
(0 -0 4.510326559e-05)
(0 -0 4.55181345e-05)
(0 -0 4.592923731e-05)
(0 -0 4.633628826e-05)
(0 -0 4.673885333e-05)
(0 -0 4.713635985e-05)
(0 -0 4.752811746e-05)
(0 -0 4.791328173e-05)
(0 -0 4.829086475e-05)
(0 -0 4.865985086e-05)
(0 -0 4.901913743e-05)
(0 -0 4.936766193e-05)
(0 -0 4.970423687e-05)
(0 -0 5.002760159e-05)
(0 -0 5.033648792e-05)
(0 -0 5.062967882e-05)
(0 -0 5.090605548e-05)
(0 -0 5.116463943e-05)
(0 -0 5.140469117e-05)
(0 -0 5.162549866e-05)
(0 -0 5.182651202e-05)
(0 -0 5.200738288e-05)
(0 -0 5.216813032e-05)
(0 -0 5.230885389e-05)
(0 -0 5.242974365e-05)
(0 -0 5.253116973e-05)
(0 -0 5.261365835e-05)
(0 -0 5.267800028e-05)
(0 -0 5.272533625e-05)
(0 -0 5.275667646e-05)
(0 -0 3.027155049e-05)
(0 -0 3.02876995e-05)
(0 -0 3.034305815e-05)
(0 -0 3.044092397e-05)
(0 -0 3.058030073e-05)
(0 -0 3.075959446e-05)
(0 -0 3.097673641e-05)
(0 -0 3.122918341e-05)
(0 -0 3.151387041e-05)
(0 -0 3.182729191e-05)
(0 -0 3.216567635e-05)
(0 -0 3.252513262e-05)
(0 -0 3.290172801e-05)
(0 -0 3.329152878e-05)
(0 -0 3.369065498e-05)
(0 -0 3.409537238e-05)
(0 -0 3.45022013e-05)
(0 -0 3.490799508e-05)
(0 -0 3.530995903e-05)
(0 -0 3.570561596e-05)
(0 -0 3.609275232e-05)
(0 -0 3.646937804e-05)
(0 -0 3.683371215e-05)
(0 -0 3.71842014e-05)
(0 -0 3.751946735e-05)
(0 -0 3.783838116e-05)
(0 -0 3.814007503e-05)
(0 -0 3.842395142e-05)
(0 -0 3.868960699e-05)
(0 -0 3.893669751e-05)
(0 -0 3.91649197e-05)
(0 -0 3.937412488e-05)
(0 -0 3.956414803e-05)
(0 -0 3.973481047e-05)
(0 -0 3.9885953e-05)
(0 -0 4.001747507e-05)
(0 -0 4.012937105e-05)
(0 -0 4.022173522e-05)
(0 -0 4.02947167e-05)
(0 -0 4.034871361e-05)
(0 -0 4.03842539e-05)
(0 -0 4.040195373e-05)
(0 -0 4.040232982e-05)
(0 -0 4.038610121e-05)
(0 -0 4.035419483e-05)
(0 -0 4.030762262e-05)
(0 -0 4.024747457e-05)
(0 -0 4.017503131e-05)
(0 -0 4.00919227e-05)
(0 -0 3.99996069e-05)
(0 -0 2.357590057e-05)
(0 -0 2.356718146e-05)
(0 -0 2.359356022e-05)
(0 -0 2.365993659e-05)
(0 -0 2.376587904e-05)
(0 -0 2.391026028e-05)
(0 -0 2.409157224e-05)
(0 -0 2.430787301e-05)
(0 -0 2.455662936e-05)
(0 -0 2.483478105e-05)
(0 -0 2.513896827e-05)
(0 -0 2.546571814e-05)
(0 -0 2.581151609e-05)
(0 -0 2.617281145e-05)
(0 -0 2.654603334e-05)
(0 -0 2.692765073e-05)
(0 -0 2.731425648e-05)
(0 -0 2.770263021e-05)
(0 -0 2.808975107e-05)
(0 -0 2.847276832e-05)
(0 -0 2.88489691e-05)
(0 -0 2.921571887e-05)
(0 -0 2.957052622e-05)
(0 -0 2.991111152e-05)
(0 -0 3.023555011e-05)
(0 -0 3.054217301e-05)
(0 -0 3.08295454e-05)
(0 -0 3.109654843e-05)
(0 -0 3.134230788e-05)
(0 -0 3.156604276e-05)
(0 -0 3.176711439e-05)
(0 -0 3.194489126e-05)
(0 -0 3.209891348e-05)
(0 -0 3.222885037e-05)
(0 -0 3.233450781e-05)
(0 -0 3.241583453e-05)
(0 -0 3.247292566e-05)
(0 -0 3.250603819e-05)
(0 -0 3.251559847e-05)
(0 -0 3.250219168e-05)
(0 -0 3.246654738e-05)
(0 -0 3.240952476e-05)
(0 -0 3.233209941e-05)
(0 -0 3.223536167e-05)
(0 -0 3.212051636e-05)
(0 -0 3.19888776e-05)
(0 -0 3.184188223e-05)
(0 -0 3.168096322e-05)
(0 -0 3.150741798e-05)
(0 -0 3.132278715e-05)
(0 -0 1.797453439e-05)
(0 -0 1.794616357e-05)
(0 -0 1.795088214e-05)
(0 -0 1.799497554e-05)
(0 -0 1.807843458e-05)
(0 -0 1.820046857e-05)
(0 -0 1.835996564e-05)
(0 -0 1.855539203e-05)
(0 -0 1.878454726e-05)
(0 -0 1.904460789e-05)
(0 -0 1.933238101e-05)
(0 -0 1.964451322e-05)
(0 -0 1.997756448e-05)
(0 -0 2.032800797e-05)
(0 -0 2.069224438e-05)
(0 -0 2.106666802e-05)
(0 -0 2.144775969e-05)
(0 -0 2.183215853e-05)
(0 -0 2.221663901e-05)
(0 -0 2.259811225e-05)
(0 -0 2.29735919e-05)
(0 -0 2.334026333e-05)
(0 -0 2.369543139e-05)
(0 -0 2.403653614e-05)
(0 -0 2.43613303e-05)
(0 -0 2.46678394e-05)
(0 -0 2.495433288e-05)
(0 -0 2.521929229e-05)
(0 -0 2.546141472e-05)
(0 -0 2.5679655e-05)
(0 -0 2.587316789e-05)
(0 -0 2.604123984e-05)
(0 -0 2.618326055e-05)
(0 -0 2.629873732e-05)
(0 -0 2.638731898e-05)
(0 -0 2.644881554e-05)
(0 -0 2.648321822e-05)
(0 -0 2.64907151e-05)
(0 -0 2.647169284e-05)
(0 -0 2.642672448e-05)
(0 -0 2.635655188e-05)
(0 -0 2.626206926e-05)
(0 -0 2.614431269e-05)
(0 -0 2.60044558e-05)
(0 -0 2.584380918e-05)
(0 -0 2.566381724e-05)
(0 -0 2.546605238e-05)
(0 -0 2.525220692e-05)
(0 -0 2.502406849e-05)
(0 -0 2.478355809e-05)
(0 -0 1.321739991e-05)
(0 -0 1.317275221e-05)
(0 -0 1.316052357e-05)
(0 -0 1.318825487e-05)
(0 -0 1.325626577e-05)
(0 -0 1.336400669e-05)
(0 -0 1.351064206e-05)
(0 -0 1.369490981e-05)
(0 -0 1.391480899e-05)
(0 -0 1.416763322e-05)
(0 -0 1.445024887e-05)
(0 -0 1.475932148e-05)
(0 -0 1.509139002e-05)
(0 -0 1.544286053e-05)
(0 -0 1.581002162e-05)
(0 -0 1.618907252e-05)
(0 -0 1.657628682e-05)
(0 -0 1.696806409e-05)
(0 -0 1.736099748e-05)
(0 -0 1.775179779e-05)
(0 -0 1.813723178e-05)
(0 -0 1.851420111e-05)
(0 -0 1.887971993e-05)
(0 -0 1.923093567e-05)
(0 -0 1.956517181e-05)
(0 -0 1.98800949e-05)
(0 -0 2.017371037e-05)
(0 -0 2.044434283e-05)
(0 -0 2.06905902e-05)
(0 -0 2.091125629e-05)
(0 -0 2.110531362e-05)
(0 -0 2.127188161e-05)
(0 -0 2.141021063e-05)
(0 -0 2.151968406e-05)
(0 -0 2.159983912e-05)
(0 -0 2.165039697e-05)
(0 -0 2.167128847e-05)
(0 -0 2.16626679e-05)
(0 -0 2.162491094e-05)
(0 -0 2.155860031e-05)
(0 -0 2.146450678e-05)
(0 -0 2.134357233e-05)
(0 -0 2.119689969e-05)
(0 -0 2.102574841e-05)
(0 -0 2.083153397e-05)
(0 -0 2.061582467e-05)
(0 -0 2.038033415e-05)
(0 -0 2.01269106e-05)
(0 -0 1.985752317e-05)
(0 -0 1.957424803e-05)
(0 -0 9.125912084e-06)
(0 -0 9.067216323e-06)
(0 -0 9.041141761e-06)
(0 -0 9.05640578e-06)
(0 -0 9.11359551e-06)
(0 -0 9.212342304e-06)
(0 -0 9.352018908e-06)
(0 -0 9.531557918e-06)
(0 -0 9.749076332e-06)
(0 -0 1.000190148e-05)
(0 -0 1.028687683e-05)
(0 -0 1.06005994e-05)
(0 -0 1.093950983e-05)
(0 -0 1.129989036e-05)
(0 -0 1.167786647e-05)
(0 -0 1.206950944e-05)
(0 -0 1.247088331e-05)
(0 -0 1.287815113e-05)
(0 -0 1.328764774e-05)
(0 -0 1.369580922e-05)
(0 -0 1.409910061e-05)
(0 -0 1.449399406e-05)
(0 -0 1.487710018e-05)
(0 -0 1.524523957e-05)
(0 -0 1.5595523e-05)
(0 -0 1.592540309e-05)
(0 -0 1.623266636e-05)
(0 -0 1.651541707e-05)
(0 -0 1.677204595e-05)
(0 -0 1.700117798e-05)
(0 -0 1.720162539e-05)
(0 -0 1.737235718e-05)
(0 -0 1.751248549e-05)
(0 -0 1.76212737e-05)
(0 -0 1.769816268e-05)
(0 -0 1.77428035e-05)
(0 -0 1.775508424e-05)
(0 -0 1.773514228e-05)
(0 -0 1.768336008e-05)
(0 -0 1.760034921e-05)
(0 -0 1.748693098e-05)
(0 -0 1.734411984e-05)
(0 -0 1.717311221e-05)
(0 -0 1.697528063e-05)
(0 -0 1.675217152e-05)
(0 -0 1.650550257e-05)
(0 -0 1.623715421e-05)
(0 -0 1.594915468e-05)
(0 -0 1.564366373e-05)
(0 -0 1.53229572e-05)
(0 -0 5.570365359e-06)
(0 -0 5.498924125e-06)
(0 -0 5.460871889e-06)
(0 -0 5.466097483e-06)
(0 -0 5.515446002e-06)
(0 -0 5.60871245e-06)
(0 -0 5.745444349e-06)
(0 -0 5.924713024e-06)
(0 -0 6.144669507e-06)
(0 -0 6.402576054e-06)
(0 -0 6.695161505e-06)
(0 -0 7.018918533e-06)
(0 -0 7.370176924e-06)
(0 -0 7.745084613e-06)
(0 -0 8.139595961e-06)
(0 -0 8.549586849e-06)
(0 -0 8.970896534e-06)
(0 -0 9.399423792e-06)
(0 -0 9.831132671e-06)
(0 -0 1.026207763e-05)
(0 -0 1.068838452e-05)
(0 -0 1.110625509e-05)
(0 -0 1.151201849e-05)
(0 -0 1.19022018e-05)
(0 -0 1.227362124e-05)
(0 -0 1.262344718e-05)
(0 -0 1.294921673e-05)
(0 -0 1.32488118e-05)
(0 -0 1.352041899e-05)
(0 -0 1.376247722e-05)
(0 -0 1.397362806e-05)
(0 -0 1.415268318e-05)
(0 -0 1.429861359e-05)
(0 -0 1.441056252e-05)
(0 -0 1.448787536e-05)
(0 -0 1.453013493e-05)
(0 -0 1.453718924e-05)
(0 -0 1.450916356e-05)
(0 -0 1.444645509e-05)
(0 -0 1.434971553e-05)
(0 -0 1.421983018e-05)
(0 -0 1.405790046e-05)
(0 -0 1.386523227e-05)
(0 -0 1.364332883e-05)
(0 -0 1.339388634e-05)
(0 -0 1.311878976e-05)
(0 -0 1.282010409e-05)
(0 -0 1.250005755e-05)
(0 -0 1.216102068e-05)
(0 -0 1.1805488e-05)
(0 -0 2.446884476e-06)
(0 -0 2.363527244e-06)
(0 -0 2.31516605e-06)
(0 -0 2.312789978e-06)
(0 -0 2.357371306e-06)
(0 -0 2.448714194e-06)
(0 -0 2.586383285e-06)
(0 -0 2.769418301e-06)
(0 -0 2.995851185e-06)
(0 -0 3.262800552e-06)
(0 -0 3.566897218e-06)
(0 -0 3.904610827e-06)
(0 -0 4.272272937e-06)
(0 -0 4.665948935e-06)
(0 -0 5.081400196e-06)
(0 -0 5.514132636e-06)
(0 -0 5.959627609e-06)
(0 -0 6.413455008e-06)
(0 -0 6.871306819e-06)
(0 -0 7.328968839e-06)
(0 -0 7.782275177e-06)
(0 -0 8.22710873e-06)
(0 -0 8.659464915e-06)
(0 -0 9.075550467e-06)
(0 -0 9.47187998e-06)
(0 -0 9.845341824e-06)
(0 -0 1.019321735e-05)
(0 -0 1.051315916e-05)
(0 -0 1.080314473e-05)
(0 -0 1.106141977e-05)
(0 -0 1.128644731e-05)
(0 -0 1.147687575e-05)
(0 -0 1.163153126e-05)
(0 -0 1.174943435e-05)
(0 -0 1.182983335e-05)
(0 -0 1.187224201e-05)
(0 -0 1.187646865e-05)
(0 -0 1.184262881e-05)
(0 -0 1.177113983e-05)
(0 -0 1.166270202e-05)
(0 -0 1.151827488e-05)
(0 -0 1.133905725e-05)
(0 -0 1.112647544e-05)
(0 -0 1.088217654e-05)
(0 -0 1.060802167e-05)
(0 -0 1.030607752e-05)
(0 -0 9.978606256e-06)
(0 -0 9.628050267e-06)
(0 -0 9.257009137e-06)
(0 -0 8.868214246e-06)
(0 -0 -3.041952264e-07)
(0 -0 -3.979559422e-07)
(0 -0 -4.552787504e-07)
(0 -0 -4.641468976e-07)
(0 -0 -4.233625814e-07)
(0 -0 -3.330122918e-07)
(0 -0 -1.935218844e-07)
(0 -0 -5.945704532e-09)
(0 -0 2.276397575e-07)
(0 -0 5.044104372e-07)
(0 -0 8.212823547e-07)
(0 -0 1.175016511e-06)
(0 -0 1.56197627e-06)
(0 -0 1.977894337e-06)
(0 -0 2.417938576e-06)
(0 -0 2.877036567e-06)
(0 -0 3.350207456e-06)
(0 -0 3.832712079e-06)
(0 -0 4.320011562e-06)
(0 -0 4.807647503e-06)
(0 -0 5.291160423e-06)
(0 -0 5.766101386e-06)
(0 -0 6.228123804e-06)
(0 -0 6.673105662e-06)
(0 -0 7.097257482e-06)
(0 -0 7.497190102e-06)
(0 -0 7.869931874e-06)
(0 -0 8.212903185e-06)
(0 -0 8.523865952e-06)
(0 -0 8.800865224e-06)
(0 -0 9.042179225e-06)
(0 -0 9.246288171e-06)
(0 -0 9.411869073e-06)
(0 -0 9.537815207e-06)
(0 -0 9.623273476e-06)
(0 -0 9.667686095e-06)
(0 -0 9.670822465e-06)
(0 -0 9.632792289e-06)
(0 -0 9.554038763e-06)
(0 -0 9.435317572e-06)
(0 -0 9.277670674e-06)
(0 -0 9.082404127e-06)
(0 -0 8.851075036e-06)
(0 -0 8.5854849e-06)
(0 -0 8.287671968e-06)
(0 -0 7.959899459e-06)
(0 -0 7.604641996e-06)
(0 -0 7.224569901e-06)
(0 -0 6.822525883e-06)
(0 -0 6.401494201e-06)
(0 -0 -2.733359735e-06)
(0 -0 -2.837003828e-06)
(0 -0 -2.902777326e-06)
(0 -0 -2.917669177e-06)
(0 -0 -2.88022394e-06)
(0 -0 -2.790321182e-06)
(0 -0 -2.648211191e-06)
(0 -0 -2.454820398e-06)
(0 -0 -2.212186138e-06)
(0 -0 -1.923206051e-06)
(0 -0 -1.591137619e-06)
(0 -0 -1.219451548e-06)
(0 -0 -8.120352806e-07)
(0 -0 -3.73366796e-07)
(0 -0 9.15824839e-08)
(0 -0 5.77634608e-07)
(0 -0 1.079657359e-06)
(0 -0 1.592648607e-06)
(0 -0 2.111684594e-06)
(0 -0 2.631844617e-06)
(0 -0 3.148194996e-06)
(0 -0 3.655848599e-06)
(0 -0 4.150072665e-06)
(0 -0 4.626406161e-06)
(0 -0 5.080756599e-06)
(0 -0 5.509458343e-06)
(0 -0 5.909285022e-06)
(0 -0 6.277421956e-06)
(0 -0 6.611413924e-06)
(0 -0 6.909105084e-06)
(0 -0 7.168587565e-06)
(0 -0 7.388170755e-06)
(0 -0 7.566377848e-06)
(0 -0 7.701969757e-06)
(0 -0 7.793988078e-06)
(0 -0 7.841802209e-06)
(0 -0 7.84514431e-06)
(0 -0 7.804121994e-06)
(0 -0 7.719208758e-06)
(0 -0 7.591220424e-06)
(0 -0 7.421287907e-06)
(0 -0 7.210833774e-06)
(0 -0 6.961556354e-06)
(0 -0 6.675421233e-06)
(0 -0 6.354654744e-06)
(0 -0 6.001732576e-06)
(0 -0 5.619362672e-06)
(0 -0 5.210465019e-06)
(0 -0 4.778145307e-06)
(0 -0 4.325659691e-06)
(0 -0 -4.895872084e-06)
(0 -0 -5.009537582e-06)
(0 -0 -5.083215353e-06)
(0 -0 -5.102927344e-06)
(0 -0 -5.067111942e-06)
(0 -0 -4.975602401e-06)
(0 -0 -4.828522964e-06)
(0 -0 -4.626619865e-06)
(0 -0 -4.371856471e-06)
(0 -0 -4.067347218e-06)
(0 -0 -3.716869984e-06)
(0 -0 -3.324511418e-06)
(0 -0 -2.894593834e-06)
(0 -0 -2.431723558e-06)
(0 -0 -1.940792481e-06)
(0 -0 -1.426895986e-06)
(0 -0 -8.952247875e-07)
(0 -0 -3.509968603e-07)
(0 -0 2.005527414e-07)
(0 -0 7.541541034e-07)
(0 -0 1.304503576e-06)
(0 -0 1.846317542e-06)
(0 -0 2.374441968e-06)
(0 -0 2.883990546e-06)
(0 -0 3.370470245e-06)
(0 -0 3.829860165e-06)
(0 -0 4.258630349e-06)
(0 -0 4.653708478e-06)
(0 -0 5.012416106e-06)
(0 -0 5.3323983e-06)
(0 -0 5.611563871e-06)
(0 -0 5.848051856e-06)
(0 -0 6.040230182e-06)
(0 -0 6.186725572e-06)
(0 -0 6.286473546e-06)
(0 -0 6.338770893e-06)
(0 -0 6.34331332e-06)
(0 -0 6.300207975e-06)
(0 -0 6.2099616e-06)
(0 -0 6.073454571e-06)
(0 -0 5.891912523e-06)
(0 -0 5.666882149e-06)
(0 -0 5.400213585e-06)
(0 -0 5.094050689e-06)
(0 -0 4.75082591e-06)
(0 -0 4.373249806e-06)
(0 -0 3.964289236e-06)
(0 -0 3.527138761e-06)
(0 -0 3.065189604e-06)
(0 -0 2.581991865e-06)
(0 -0 -6.818297707e-06)
(0 -0 -6.941435578e-06)
(0 -0 -7.022522061e-06)
(0 -0 -7.046590906e-06)
(0 -0 -7.011920893e-06)
(0 -0 -6.918284437e-06)
(0 -0 -6.765753974e-06)
(0 -0 -6.555020172e-06)
(0 -0 -6.288024161e-06)
(0 -0 -5.967927093e-06)
(0 -0 -5.598629241e-06)
(0 -0 -5.184402881e-06)
(0 -0 -4.72981257e-06)
(0 -0 -4.239774017e-06)
(0 -0 -3.719565142e-06)
(0 -0 -3.174718712e-06)
(0 -0 -2.610849732e-06)
(0 -0 -2.033518848e-06)
(0 -0 -1.44819648e-06)
(0 -0 -8.60313752e-07)
(0 -0 -2.753278932e-07)
(0 -0 3.012717346e-07)
(0 -0 8.640463839e-07)
(0 -0 1.407755162e-06)
(0 -0 1.927511498e-06)
(0 -0 2.418897576e-06)
(0 -0 2.878012871e-06)
(0 -0 3.301459168e-06)
(0 -0 3.686281396e-06)
(0 -0 4.029891099e-06)
(0 -0 4.329996672e-06)
(0 -0 4.584560869e-06)
(0 -0 4.791796804e-06)
(0 -0 4.950200117e-06)
(0 -0 5.058603426e-06)
(0 -0 5.116232791e-06)
(0 -0 5.122747958e-06)
(0 -0 5.0782561e-06)
(0 -0 4.983299701e-06)
(0 -0 4.83882864e-06)
(0 -0 4.646169876e-06)
(0 -0 4.407003363e-06)
(0 -0 4.123345659e-06)
(0 -0 3.797539855e-06)
(0 -0 3.432249119e-06)
(0 -0 3.030445143e-06)
(0 -0 2.595381398e-06)
(0 -0 2.130554045e-06)
(0 -0 1.639660926e-06)
(0 -0 1.12655697e-06)
(0 -0 -8.521951091e-06)
(0 -0 -8.654315102e-06)
(0 -0 -8.742490899e-06)
(0 -0 -8.770526313e-06)
(0 -0 -8.736546582e-06)
(0 -0 -8.640265426e-06)
(0 -0 -8.481720296e-06)
(0 -0 -8.261593668e-06)
(0 -0 -7.981869624e-06)
(0 -0 -7.645796887e-06)
(0 -0 -7.257384316e-06)
(0 -0 -6.821024908e-06)
(0 -0 -6.341430712e-06)
(0 -0 -5.823714479e-06)
(0 -0 -5.273419036e-06)
(0 -0 -4.696416478e-06)
(0 -0 -4.098727256e-06)
(0 -0 -3.486358899e-06)
(0 -0 -2.86523156e-06)
(0 -0 -2.241186578e-06)
(0 -0 -1.62002157e-06)
(0 -0 -1.007492609e-06)
(0 -0 -4.092566294e-07)
(0 -0 1.69234711e-07)
(0 -0 7.22855504e-07)
(0 -0 1.246905056e-06)
(0 -0 1.737164187e-06)
(0 -0 2.189903082e-06)
(0 -0 2.601847705e-06)
(0 -0 2.970120727e-06)
(0 -0 3.292180722e-06)
(0 -0 3.565781035e-06)
(0 -0 3.788963351e-06)
(0 -0 3.960087044e-06)
(0 -0 4.077882228e-06)
(0 -0 4.141506389e-06)
(0 -0 4.15058573e-06)
(0 -0 4.105230321e-06)
(0 -0 4.006022613e-06)
(0 -0 3.853988477e-06)
(0 -0 3.650565605e-06)
(0 -0 3.397581019e-06)
(0 -0 3.097238212e-06)
(0 -0 2.752106266e-06)
(0 -0 2.365106527e-06)
(0 -0 1.939495014e-06)
(0 -0 1.478832276e-06)
(0 -0 9.869375754e-07)
(0 -0 4.678342532e-07)
(0 -0 -7.43101439e-08)
(0 -0 -1.0024753e-05)
(0 -0 -1.016608292e-05)
(0 -0 -1.026103807e-05)
(0 -0 -1.029268124e-05)
(0 -0 -1.025898673e-05)
(0 -0 -1.015961018e-05)
(0 -0 -9.994553826e-06)
(0 -0 -9.764497434e-06)
(0 -0 -9.471484765e-06)
(0 -0 -9.118880204e-06)
(0 -0 -8.710836365e-06)
(0 -0 -8.251903225e-06)
(0 -0 -7.746966988e-06)
(0 -0 -7.201339289e-06)
(0 -0 -6.620786622e-06)
(0 -0 -6.011429528e-06)
(0 -0 -5.379570475e-06)
(0 -0 -4.731549216e-06)
(0 -0 -4.073679409e-06)
(0 -0 -3.412247807e-06)
(0 -0 -2.753516341e-06)
(0 -0 -2.103678887e-06)
(0 -0 -1.46876586e-06)
(0 -0 -8.545253082e-07)
(0 -0 -2.66318318e-07)
(0 -0 2.909472858e-07)
(0 -0 8.12838653e-07)
(0 -0 1.295383892e-06)
(0 -0 1.735036787e-06)
(0 -0 2.128633363e-06)
(0 -0 2.473354143e-06)
(0 -0 2.76670391e-06)
(0 -0 3.006517491e-06)
(0 -0 3.190993187e-06)
(0 -0 3.318745432e-06)
(0 -0 3.38885962e-06)
(0 -0 3.400931125e-06)
(0 -0 3.35507844e-06)
(0 -0 3.25193124e-06)
(0 -0 3.092601938e-06)
(0 -0 2.87865403e-06)
(0 -0 2.6120799e-06)
(0 -0 2.29528971e-06)
(0 -0 1.931100227e-06)
(0 -0 1.522714768e-06)
(0 -0 1.073696398e-06)
(0 -0 5.87932601e-07)
(0 -0 6.958243981e-08)
(0 -0 -4.769904291e-07)
(0 -0 -1.047289074e-06)
(0 -0 -1.134020139e-05)
(0 -0 -1.14902498e-05)
(0 -0 -1.159170729e-05)
(0 -0 -1.162666082e-05)
(0 -0 -1.15929364e-05)
(0 -0 -1.14901338e-05)
(0 -0 -1.131822171e-05)
(0 -0 -1.107787766e-05)
(0 -0 -1.07712058e-05)
(0 -0 -1.040169022e-05)
(0 -0 -9.973634806e-06)
(0 -0 -9.491758134e-06)
(0 -0 -8.961136032e-06)
(0 -0 -8.387298342e-06)
(0 -0 -7.776255449e-06)
(0 -0 -7.134386669e-06)
(0 -0 -6.46826107e-06)
(0 -0 -5.784498253e-06)
(0 -0 -5.089721596e-06)
(0 -0 -4.390575111e-06)
(0 -0 -3.693731642e-06)
(0 -0 -3.005834414e-06)
(0 -0 -2.333365493e-06)
(0 -0 -1.682483585e-06)
(0 -0 -1.058889041e-06)
(0 -0 -4.677543455e-07)
(0 -0 8.62748813e-08)
(0 -0 5.990300474e-07)
(0 -0 1.066753785e-06)
(0 -0 1.486045184e-06)
(0 -0 1.85383007e-06)
(0 -0 2.167360606e-06)
(0 -0 2.424242728e-06)
(0 -0 2.622486643e-06)
(0 -0 2.760569535e-06)
(0 -0 2.837493372e-06)
(0 -0 2.852821146e-06)
(0 -0 2.806684651e-06)
(0 -0 2.699769082e-06)
(0 -0 2.533285271e-06)
(0 -0 2.308939395e-06)
(0 -0 2.02890856e-06)
(0 -0 1.695826047e-06)
(0 -0 1.312769476e-06)
(0 -0 8.83240297e-07)
(0 -0 4.111318386e-07)
(0 -0 -9.931238313e-08)
(0 -0 -6.435597509e-07)
(0 -0 -1.216869392e-06)
(0 -0 -1.814379433e-06)
(0 -0 -1.247850176e-05)
(0 -0 -1.263702179e-05)
(0 -0 -1.274471884e-05)
(0 -0 -1.278272397e-05)
(0 -0 -1.274871854e-05)
(0 -0 -1.264224958e-05)
(0 -0 -1.24632558e-05)
(0 -0 -1.221241437e-05)
(0 -0 -1.189188958e-05)
(0 -0 -1.150528412e-05)
(0 -0 -1.105705222e-05)
(0 -0 -1.055207925e-05)
(0 -0 -9.995628939e-06)
(0 -0 -9.393449384e-06)
(0 -0 -8.751801247e-06)
(0 -0 -8.077337481e-06)
(0 -0 -7.3769121e-06)
(0 -0 -6.657433528e-06)
(0 -0 -5.925820261e-06)
(0 -0 -5.189029778e-06)
(0 -0 -4.454082219e-06)
(0 -0 -3.728009951e-06)
(0 -0 -3.017716856e-06)
(0 -0 -2.329788425e-06)
(0 -0 -1.670320616e-06)
(0 -0 -1.04482396e-06)
(0 -0 -4.582192239e-07)
(0 -0 8.509729801e-08)
(0 -0 5.81161449e-07)
(0 -0 1.026362527e-06)
(0 -0 1.417402333e-06)
(0 -0 1.751299545e-06)
(0 -0 2.025434554e-06)
(0 -0 2.237621438e-06)
(0 -0 2.386187808e-06)
(0 -0 2.47004157e-06)
(0 -0 2.488708367e-06)
(0 -0 2.442335146e-06)
(0 -0 2.331669297e-06)
(0 -0 2.158028937e-06)
(0 -0 1.92327352e-06)
(0 -0 1.629777235e-06)
(0 -0 1.28040882e-06)
(0 -0 8.785168852e-07)
(0 -0 4.279119769e-07)
(0 -0 -6.716555879e-08)
(0 -0 -6.02084833e-07)
(0 -0 -1.171868197e-06)
(0 -0 -1.771281086e-06)
(0 -0 -2.394981221e-06)
(0 -0 -1.344746491e-05)
(0 -0 -1.361420041e-05)
(0 -0 -1.37278775e-05)
(0 -0 -1.37687021e-05)
(0 -0 -1.373421597e-05)
(0 -0 -1.36239166e-05)
(0 -0 -1.343771613e-05)
(0 -0 -1.317629317e-05)
(0 -0 -1.284187194e-05)
(0 -0 -1.243817158e-05)
(0 -0 -1.196979419e-05)
(0 -0 -1.144178821e-05)
(0 -0 -1.085960006e-05)
(0 -0 -1.022918967e-05)
(0 -0 -9.557062055e-06)
(0 -0 -8.850142181e-06)
(0 -0 -8.115574569e-06)
(0 -0 -7.360567556e-06)
(0 -0 -6.59234419e-06)
(0 -0 -5.818173479e-06)
(0 -0 -5.045401903e-06)
(0 -0 -4.281411385e-06)
(0 -0 -3.533480894e-06)
(0 -0 -2.808587781e-06)
(0 -0 -2.11321727e-06)
(0 -0 -1.453243255e-06)
(0 -0 -8.339073345e-07)
(0 -0 -2.598804336e-07)
(0 -0 2.646345516e-07)
(0 -0 7.358055369e-07)
(0 -0 1.15011437e-06)
(0 -0 1.504357248e-06)
(0 -0 1.795699691e-06)
(0 -0 2.021766158e-06)
(0 -0 2.180735834e-06)
(0 -0 2.271419104e-06)
(0 -0 2.293299365e-06)
(0 -0 2.246536797e-06)
(0 -0 2.131943606e-06)
(0 -0 1.950949405e-06)
(0 -0 1.705570328e-06)
(0 -0 1.398383043e-06)
(0 -0 1.032501843e-06)
(0 -0 6.115576873e-07)
(0 -0 1.396799629e-07)
(0 -0 -3.785537461e-07)
(0 -0 -9.381170544e-07)
(0 -0 -1.533572037e-06)
(0 -0 -2.159123062e-06)
(0 -0 -2.808653831e-06)
(0 -0 -1.425321942e-05)
(0 -0 -1.442789411e-05)
(0 -0 -1.454728743e-05)
(0 -0 -1.459071857e-05)
(0 -0 -1.455559579e-05)
(0 -0 -1.444137012e-05)
(0 -0 -1.424793042e-05)
(0 -0 -1.397595827e-05)
(0 -0 -1.362773717e-05)
(0 -0 -1.320710004e-05)
(0 -0 -1.271879276e-05)