/*--------------------------------*- C++ -*----------------------------------*\
| =========                 |                                                 |
| \\      /  F ield         | foam-extend: Open Source CFD                    |
|  \\    /   O peration     | Version:     4.1                                |
|   \\  /    A nd           | Web:         http://www.foam-extend.org         |
|    \\/     M anipulation  |                                                 |
\*---------------------------------------------------------------------------*/
FoamFile
{
    version     2.0;
    format      ascii;
    class       volScalarField;
    location    "80000";
    object      p;
}
// * * * * * * * * * * * * * * * * * * * * * * * * * * * * * * * * * * * * * //

dimensions      [0 2 -2 0 0 0 0];

internalField   nonuniform List<scalar> 
15920
(
1.943948736e-08
1.661481779e-08
1.442443615e-08
1.330741439e-08
1.251109268e-08
1.168939659e-08
1.088976556e-08
1.019007789e-08
9.593733581e-09
9.079158757e-09
8.635460444e-09
8.259300504e-09
7.945731619e-09
7.68676005e-09
7.473444332e-09
7.297226069e-09
7.150219999e-09
7.025300674e-09
6.916244817e-09
6.817824744e-09
6.725795446e-09
6.636810023e-09
6.54830716e-09
6.458391863e-09
6.365716874e-09
6.269374866e-09
6.168803223e-09
6.063701849e-09
5.953965101e-09
5.83962747e-09
5.720821043e-09
5.597741863e-09
5.470645339e-09
5.339811774e-09
5.20553115e-09
5.068107051e-09
4.927853622e-09
4.785093477e-09
4.640158342e-09
4.493390329e-09
4.345143128e-09
4.195783032e-09
4.045689582e-09
3.895255296e-09
3.744879284e-09
3.594966768e-09
3.445955562e-09
3.298294736e-09
3.152440618e-09
3.008856367e-09
1.413576427e-08
1.378571628e-08
1.321906109e-08
1.269237815e-08
1.21833114e-08
1.161074321e-08
1.100020491e-08
1.040713132e-08
9.857345964e-09
9.357077189e-09
8.910274345e-09
8.520549314e-09
8.187625613e-09
7.906931909e-09
7.671513704e-09
7.473820734e-09
7.306515697e-09
7.162788263e-09
7.036569274e-09
6.92267309e-09
6.816826883e-09
6.715612481e-09
6.616369443e-09
6.517089795e-09
6.416290774e-09
6.312923409e-09
6.206289349e-09
6.095962283e-09
5.981721356e-09
5.863497423e-09
5.741329256e-09
5.615325083e-09
5.485633914e-09
5.352486667e-09
5.216155323e-09
5.0769141e-09
4.935043427e-09
4.790837808e-09
4.644605558e-09
4.496666637e-09
4.347352792e-09
4.19700989e-09
4.046002064e-09
3.894718504e-09
3.743587756e-09
3.593063024e-09
3.443556231e-09
3.295494344e-09
3.14933191e-09
3.005538076e-09
1.361023725e-08
1.344762648e-08
1.300670364e-08
1.244864701e-08
1.191043651e-08
1.139501273e-08
1.088283975e-08
1.038547004e-08
9.920154034e-09
9.493365709e-09
9.105549281e-09
8.756795704e-09
8.446750613e-09
8.173323971e-09
7.933061794e-09
7.721935265e-09
7.535766286e-09
7.370371977e-09
7.221694385e-09
7.085954307e-09
6.959767308e-09
6.840197669e-09
6.724765952e-09
6.611432998e-09
6.498594087e-09
6.38501311e-09
6.269757238e-09
6.152149082e-09
6.031724309e-09
5.90819115e-09
5.781394201e-09
5.651285283e-09
5.517904779e-09
5.381371157e-09
5.241852769e-09
5.099547621e-09
4.954682125e-09
4.807512351e-09
4.658321081e-09
4.507414671e-09
4.355122565e-09
4.201797768e-09
4.04781792e-09
3.893587118e-09
3.739531446e-09
3.586088214e-09
3.433696679e-09
3.282812994e-09
3.133913704e-09
2.987487534e-09
1.261712836e-08
1.24746938e-08
1.21916558e-08
1.183290619e-08
1.145866145e-08
1.108053432e-08
1.069230304e-08
1.030098386e-08
9.921154738e-09
9.562168706e-09
9.227366966e-09
8.918172475e-09
8.635499879e-09
8.379175208e-09
8.147768702e-09
7.939010078e-09
7.750199129e-09
7.578440128e-09
7.420792331e-09
7.274409206e-09
7.136653815e-09
7.005169537e-09
6.877910665e-09
6.75314817e-09
6.629459391e-09
6.50569647e-09
6.380952411e-09
6.254532033e-09
6.12592358e-09
5.994769845e-09
5.860841424e-09
5.724014092e-09
5.584250331e-09
5.441585173e-09
5.296113576e-09
5.147979252e-09
4.997367817e-09
4.844503148e-09
4.689644429e-09
4.533083373e-09
4.375143958e-09
4.216180792e-09
4.056573876e-09
3.896731835e-09
3.737087621e-09
3.578096948e-09
3.420234356e-09
3.263991838e-09
3.109878368e-09
2.958413758e-09
1.197965012e-08
1.190914868e-08
1.173843528e-08
1.148880567e-08
1.119835928e-08
1.088859914e-08
1.056628272e-08
1.023802687e-08
9.913505053e-09
9.600676453e-09
9.303817824e-09
9.025053712e-09
8.765624077e-09
8.525921734e-09
8.30534149e-09
8.102490269e-09
7.915522941e-09
7.742375392e-09
7.580898366e-09
7.428958745e-09
7.284526284e-09
7.145735052e-09
7.01091688e-09
6.878614059e-09
6.747579296e-09
6.616766696e-09
6.485316965e-09
6.352540307e-09
6.217898461e-09
6.080986124e-09
5.941513304e-09
5.799289601e-09
5.654210852e-09
5.506248325e-09
5.355440049e-09
5.201882475e-09
5.0457233e-09
4.887157109e-09
4.726422839e-09
4.56380017e-09
4.399608625e-09
4.234216346e-09
4.068030062e-09
3.90146978e-09
3.734990497e-09
3.569090124e-09
3.404290556e-09
3.241130182e-09
3.080164305e-09
2.92196208e-09
1.14936645e-08
1.144388894e-08
1.131933039e-08
1.113003478e-08
1.090227028e-08
1.065407162e-08
1.039282594e-08
1.012342673e-08
9.852260739e-09
9.585589429e-09
9.327715554e-09
9.081150453e-09
8.847404634e-09
8.627274764e-09
8.420823504e-09
8.227464084e-09
8.046160401e-09
7.875604928e-09
7.714334774e-09
7.560817242e-09
7.41352458e-09
7.270994425e-09
7.131870833e-09
6.99492813e-09
6.859082927e-09
6.723397431e-09
6.587075982e-09
6.449457372e-09
6.310005008e-09
6.168296383e-09
6.024012134e-09
5.87692551e-09
5.726893009e-09
5.573846233e-09
5.417784838e-09
5.258770821e-09
5.096924748e-09
4.932422834e-09
4.765493618e-09
4.596411735e-09
4.425495232e-09
4.25312304e-09
4.079729641e-09
3.90575759e-09
3.731685666e-09
3.558052945e-09
3.385429956e-09
3.214408049e-09
3.045599641e-09
2.879633725e-09
1.111139251e-08
1.107389371e-08
1.098118375e-08
1.083853835e-08
1.066218103e-08
1.046434365e-08
1.025129906e-08
1.002759971e-08
9.798444827e-09
9.568995876e-09
9.343211938e-09
9.123706738e-09
8.912179832e-09
8.709693707e-09
8.516721463e-09
8.333190008e-09
8.158598414e-09
7.992151828e-09
7.832865194e-09
7.679640915e-09
7.531333854e-09
7.386805665e-09
7.244965357e-09
7.104796457e-09
6.965373854e-09
6.825872969e-09
6.685573129e-09
6.543856842e-09
6.400206397e-09
6.254198837e-09
6.105500039e-09
5.95385855e-09
5.799099947e-09
5.641122997e-09
5.479896681e-09
5.315450663e-09
5.147875533e-09
4.977328454e-09
4.804024936e-09
4.628237073e-09
4.450297073e-09
4.270579196e-09
4.089503822e-09
3.907572271e-09
3.725335995e-09
3.543366382e-09
3.362273915e-09
3.182708295e-09
3.005346808e-09
2.830885754e-09
1.080849467e-08
1.077981977e-08
1.070870811e-08
1.059779034e-08
1.045759434e-08
1.029668847e-08
1.012027155e-08
9.932445208e-09
9.737471901e-09
9.539456184e-09
9.341725609e-09
9.146689148e-09
8.956035463e-09
8.770909239e-09
8.591970362e-09
8.419430946e-09
8.253131231e-09
8.09263463e-09
7.937310349e-09
7.786397749e-09
7.639059531e-09
7.494426993e-09
7.35163633e-09
7.209855665e-09
7.068304117e-09
6.926264693e-09
6.783092273e-09
6.638217854e-09
6.491149906e-09
6.34147365e-09
6.18884947e-09
6.03301117e-09
5.873761757e-09
5.710970703e-09
5.544586268e-09
5.374619194e-09
5.201140902e-09
5.024285191e-09
4.844255047e-09
4.661323866e-09
4.475829409e-09
4.288162319e-09
4.098772653e-09
3.908191431e-09
3.71700364e-09
3.525833067e-09
3.335351779e-09
3.146277635e-09
2.95936334e-09
2.775386316e-09
1.056641631e-08
1.054370829e-08
1.048729617e-08
1.039864271e-08
1.028515194e-08
1.015294998e-08
1.000597735e-08
9.847520868e-09
9.680965937e-09
9.509571811e-09
9.336092506e-09
9.162661649e-09
8.990871938e-09
8.821870031e-09
8.656403566e-09
8.494853906e-09
8.337287152e-09
8.183518832e-09
8.033175458e-09
7.885745851e-09
7.740624804e-09
7.597151175e-09
7.45464007e-09
7.312408652e-09
7.169795863e-09
7.026177133e-09
6.880974819e-09
6.733665285e-09
6.583783408e-09
6.430925529e-09
6.274749197e-09
6.114976644e-09
5.951400381e-09
5.783875269e-09
5.612311218e-09
5.436691832e-09
5.257074048e-09
5.073583507e-09
4.886416487e-09
4.695842803e-09
4.502203517e-09
4.305910994e-09
4.107453073e-09
3.90738735e-09
3.706340109e-09
3.504999698e-09
3.304110958e-09
3.104469805e-09
2.906915232e-09
2.712319748e-09
1.037238682e-08
1.03539726e-08
1.030823323e-08
1.023604164e-08
1.014281713e-08
1.003296466e-08
9.909349657e-09
9.774512744e-09
9.631155584e-09
9.481909248e-09
9.329049407e-09
9.174412325e-09
9.019432532e-09
8.865191942e-09
8.712448441e-09
8.561660087e-09
8.413020271e-09
8.266502035e-09
8.121902764e-09
7.978884134e-09
7.837007437e-09
7.695765218e-09
7.554608907e-09
7.412972178e-09
7.270289651e-09
7.126011705e-09
6.97961581e-09
6.830617112e-09
6.678569723e-09
6.523079138e-09
6.363802705e-09
6.20045088e-09
6.03278871e-09
5.860646368e-09
5.683916807e-09
5.502563854e-09
5.31662487e-09
5.126210192e-09
4.93150634e-09
4.732780578e-09
4.530382804e-09
4.324746665e-09
4.116389602e-09
3.905910538e-09
3.693989914e-09
3.481384626e-09
3.268920829e-09
3.057486397e-09
2.848021695e-09
2.641509243e-09
1.021728995e-08
1.020209263e-08
1.016434171e-08
1.010455931e-08
1.002684138e-08
9.934430564e-09
9.829412931e-09
9.713730868e-09
9.589526346e-09
9.458913352e-09
9.323747711e-09
9.185568799e-09
9.04562291e-09
8.904886594e-09
8.764078434e-09
8.623673295e-09
8.483925937e-09
8.344901378e-09
8.206506444e-09
8.068519731e-09
7.930619339e-09
7.792408813e-09
7.653440097e-09
7.513233916e-09
7.371296598e-09
7.227136699e-09
7.080266455e-09
6.930232587e-09
6.776605065e-09
6.618984648e-09
6.45701633e-09
6.290393318e-09
6.11886084e-09
5.942223323e-09
5.760349088e-09
5.5731753e-09
5.380713413e-09
5.183054174e-09
4.980372551e-09
4.772932724e-09
4.561092102e-09
4.345303933e-09
4.126118557e-09
3.904182944e-09
3.68023911e-09
3.455120386e-09
3.229745543e-09
3.005110239e-09
2.782275156e-09
2.562352572e-09
1.009430622e-08
1.008157402e-08
1.004994419e-08
9.999726823e-09
9.934109329e-09
9.855536453e-09
9.765529907e-09
9.665554602e-09
9.557289133e-09
9.442420174e-09
9.322450468e-09
9.198653812e-09
9.072090601e-09
8.943617025e-09
8.813885656e-09
8.683351496e-09
8.552286999e-09
8.420802416e-09
8.288867474e-09
8.156333161e-09
8.022953095e-09
7.888405389e-09
7.75230976e-09
7.614249027e-09
7.473770701e-09
7.330426807e-09
7.183765122e-09
7.033328873e-09
6.87868796e-09
6.71943807e-09
6.555206828e-09
6.385661998e-09
6.210518937e-09
6.029548182e-09
5.842582722e-09
5.649525119e-09
5.450355434e-09
5.245138948e-09
5.034033177e-09
4.817294573e-09
4.595284492e-09
4.368473984e-09
4.137447196e-09
3.902902699e-09
3.665652216e-09
3.426616862e-09
3.186821153e-09
2.947384241e-09
2.709507108e-09
2.474456235e-09
9.998211183e-09
9.98741172e-09
9.960581803e-09
9.917899407e-09
9.861901198e-09
9.794465343e-09
9.716703897e-09
9.629713906e-09
9.534804583e-09
9.433317918e-09
9.326465258e-09
9.215289884e-09
9.100677974e-09
8.98336101e-09
8.863910321e-09
8.742737171e-09
8.6201014e-09
8.496124935e-09
8.370806431e-09
8.24403487e-09
8.115603311e-09
7.985242043e-09
7.852600615e-09
7.717306744e-09
7.578949015e-09
7.437079109e-09
7.29125008e-09
7.141011977e-09
6.985922673e-09
6.825555967e-09
6.659509616e-09
6.487414766e-09
6.308945309e-09
6.123827025e-09
5.931846871e-09
5.732862544e-09
5.526812478e-09
5.313726008e-09
5.093733332e-09
4.867074938e-09
4.634110106e-09
4.395324174e-09
4.151334354e-09
3.902893347e-09
3.650889654e-09
3.396344084e-09
3.140403028e-09
2.884328701e-09
2.629485196e-09
2.377319881e-09
9.924912976e-09
9.915661135e-09
9.892673494e-09
9.856042969e-09
9.807825015e-09
9.749487029e-09
9.681844624e-09
9.605716481e-09
9.522120831e-09
9.432121653e-09
9.336689209e-09
9.236668874e-09
9.132789287e-09
9.02566142e-09
8.915769965e-09
8.803469569e-09
8.688988444e-09
8.572436592e-09
8.453819621e-09
8.333050346e-09
8.209902704e-09
8.084160406e-09
7.955507193e-09
7.823558927e-09
7.687911167e-09
7.548127834e-09
7.403753835e-09
7.25432301e-09
7.099366359e-09
6.938421821e-09
6.771044072e-09
6.596814618e-09
6.415352222e-09
6.226323743e-09
6.02945559e-09
5.824545724e-09
5.611476171e-09
5.390225945e-09
5.16088418e-09
4.923663077e-09
4.678910065e-09
4.427118401e-09
4.168935708e-09
3.905170043e-09
3.636792448e-09
3.364934807e-09
3.090883008e-09
2.816065995e-09
2.542039738e-09
2.270465161e-09
9.871138346e-09
9.863150041e-09
9.843298507e-09
9.811620859e-09
9.769807595e-09
9.719022537e-09
9.65986545e-09
9.592943889e-09
9.519047221e-09
9.439015945e-09
9.353622511e-09
9.263545188e-09
9.169374396e-09
9.071609721e-09
8.970650101e-09
8.866788009e-09
8.760209795e-09
8.650996168e-09
8.539134438e-09
8.424527293e-09
8.307028555e-09
8.186333701e-09
8.062138108e-09
7.934075351e-09
7.801731925e-09
7.664658134e-09
7.522375693e-09
7.374386038e-09
7.220179171e-09
7.059243397e-09
6.89107555e-09
6.715191763e-09
6.531139027e-09
6.338507758e-09
6.136945445e-09
5.926171293e-09
5.705991642e-09
5.47631609e-09
5.237174276e-09
4.988733137e-09
4.731313753e-09
4.465406355e-09
4.191682539e-09
3.911004565e-09
3.624431059e-09
3.333217086e-09
3.038807365e-09
2.742823753e-09
2.447047492e-09
2.153394094e-09
9.834217402e-09
9.827280347e-09
9.810036793e-09
9.782487357e-09
9.746040437e-09
9.70163144e-09
9.649703495e-09
9.590699278e-09
9.525228004e-09
9.453952743e-09
9.377485744e-09
9.296365658e-09
9.211063483e-09
9.121978204e-09
9.029427988e-09
8.933640007e-09
8.834755169e-09
8.732828199e-09
8.627822875e-09
8.519611307e-09
8.408006498e-09
8.292741904e-09
8.173489692e-09
8.049864196e-09
7.9214303e-09
7.787709615e-09
7.64818673e-09
7.502317064e-09
7.349535417e-09
7.189265251e-09
7.020928946e-09
6.843959242e-09
6.657812035e-09
6.461980653e-09
6.25601157e-09
6.039521605e-09
5.812216631e-09
5.573911761e-09
5.324552777e-09
5.064238437e-09
4.793242831e-09
4.512036201e-09
4.221302598e-09
3.921953646e-09
3.615138194e-09
3.302246022e-09
2.98490259e-09
2.664954617e-09
2.344448942e-09
2.025603846e-09
9.811929782e-09
9.805889213e-09
9.790862591e-09
9.766813836e-09
9.734936639e-09
9.695993703e-09
9.650336192e-09
9.598249205e-09
9.540203249e-09
9.476723467e-09
9.408294488e-09
9.335339686e-09
9.258229028e-09
9.17727028e-09
9.092708099e-09
9.004713969e-09
8.913377767e-09
8.81871133e-09
8.720645171e-09
8.619033134e-09
8.513663528e-09
8.404252821e-09
8.290448154e-09
8.17183688e-09
8.047951213e-09
7.918271968e-09
7.782234256e-09
7.639234364e-09
7.488637387e-09
7.329785895e-09
7.162010069e-09
6.984639635e-09
6.797017722e-09
6.598516571e-09
6.38855511e-09
6.166618753e-09
5.932281943e-09
5.68523339e-09
5.425303242e-09
5.152491304e-09
4.866995809e-09
4.569241872e-09
4.259907339e-09
3.939943302e-09
3.610588488e-09
3.273377293e-09
2.930138542e-09
2.582981645e-09
2.234270835e-09
1.886588896e-09
9.80238245e-09
9.79705239e-09
9.78397361e-09
9.762974797e-09
9.735066086e-09
9.700845048e-09
9.660768852e-09
9.614825453e-09
9.563424462e-09
9.506990201e-09
9.44590272e-09
9.380491546e-09
9.311035898e-09
9.23777267e-09
9.160879911e-09
9.0804714e-09
8.996590505e-09
8.909208522e-09
8.818224785e-09
8.723467911e-09
8.624694434e-09
8.521590558e-09
8.413774567e-09
8.300799247e-09
8.182154448e-09
8.057270402e-09
7.925522039e-09
7.786234295e-09
7.638688514e-09
7.482130343e-09
7.315779543e-09
7.138841989e-09
6.950523946e-09
6.750048745e-09
6.536676218e-09
6.309725514e-09
6.068601883e-09
5.812827453e-09
5.542075191e-09
5.256204746e-09
4.955299382e-09
4.639703642e-09
4.31005984e-09
3.967339307e-09
3.612865173e-09
3.248326197e-09
2.875780106e-09
2.497641775e-09
2.116653839e-09
1.735841443e-09
9.804158348e-09
9.799582886e-09
9.788077299e-09
9.769741985e-09
9.745398989e-09
9.715564771e-09
9.680184469e-09
9.639684209e-09
9.594297979e-09
9.54432176e-09
9.490035575e-09
9.431682743e-09
9.36947437e-09
9.303583043e-09
9.234130314e-09
9.161179826e-09
9.084732289e-09
9.00472223e-09
8.921015978e-09
8.833410128e-09
8.741630307e-09
8.645331323e-09
8.544096545e-09
8.437437709e-09
8.324795961e-09
8.205543595e-09
8.078986434e-09
7.944367289e-09
7.800870859e-09
7.647630531e-09
7.483737381e-09
7.308251405e-09
7.120215359e-09
6.918671965e-09
6.702685342e-09
6.471367182e-09
6.223907899e-09
5.959612957e-09
5.677944398e-09
5.378566634e-09
5.06139474e-09
4.726643807e-09
4.37487818e-09
4.007057258e-09
3.624572577e-09
3.229272549e-09
2.823472616e-09
2.40994568e-09
1.991888304e-09
1.572864394e-09
9.815426773e-09
9.8114036e-09
9.801439469e-09
9.785513792e-09
9.76432437e-09
9.73827236e-09
9.707447732e-09
9.672019111e-09
9.632202165e-09
9.588233617e-09
9.540326576e-09
9.488663003e-09
9.43339679e-09
9.374647029e-09
9.312487785e-09
9.246940407e-09
9.177967929e-09
9.105470946e-09
9.029284446e-09
8.949175102e-09
8.864838537e-09
8.775896701e-09
8.681895506e-09
8.582303046e-09
8.476508426e-09
8.36382121e-09
8.243471547e-09
8.114611536e-09
7.976318278e-09
7.827598926e-09
7.667397869e-09
7.494606247e-09
7.308074629e-09
7.106630248e-09
6.889100007e-09
6.65433974e-09
6.401269779e-09
6.128917149e-09
5.836465268e-09
5.523311309e-09
5.189129218e-09
4.833935361e-09
4.458155029e-09
4.062687447e-09
3.64896302e-09
3.218985438e-09
2.775353982e-09
2.321260151e-09
1.860451044e-09
1.397158143e-09
9.835138929e-09
9.831676587e-09
9.823089691e-09
9.809344494e-09
9.791040665e-09
9.768510217e-09
9.741833468e-09
9.711104819e-09
9.676490637e-09
9.638177037e-09
9.596327972e-09
9.551078025e-09
9.502534824e-09
9.450774609e-09
9.395832901e-09
9.337696138e-09
9.276295869e-09
9.211504172e-09
9.143129376e-09
9.070911739e-09
8.994518986e-09
8.913541955e-09
8.827490547e-09
8.735789859e-09
8.63777653e-09
8.532695524e-09
8.419697788e-09
8.2978392e-09
8.166081097e-09
8.023292422e-09
7.868253815e-09
7.699664488e-09
7.516153169e-09
7.316294538e-09
7.098632446e-09
6.861710953e-09
6.604113968e-09
6.324514058e-09
6.021731322e-09
5.694803342e-09
5.34306551e-09
4.966238341e-09
4.564518412e-09
4.138670139e-09
3.690111658e-09
3.220983631e-09
2.734191718e-09
2.233415262e-09
1.723071311e-09
1.208226658e-09
9.862122367e-09
9.859171857e-09
9.851851399e-09
9.840127867e-09
9.824506177e-09
9.805260336e-09
9.782449694e-09
9.756137323e-09
9.726449838e-09
9.693531744e-09
9.65750765e-09
9.618475604e-09
9.576508865e-09
9.531651498e-09
9.483909541e-09
9.433242981e-09
9.379559721e-09
9.322710306e-09
9.262482487e-09
9.198595528e-09
9.130694381e-09
9.05834377e-09
8.981022187e-09
8.898115583e-09
8.808911016e-09
8.712590621e-09
8.608226539e-09
8.494776893e-09
8.37108267e-09
8.235865608e-09
8.087727964e-09
7.925155713e-09
7.746526695e-09
7.550124773e-09
7.334161282e-09
7.096805784e-09
6.836228385e-09
6.550655035e-09
6.238436439e-09
5.898131863e-09
5.528609224e-09
5.129159755e-09
4.699622255e-09
4.240512002e-09
3.753147442e-09
3.23976064e-09
2.703575207e-09
2.148838363e-09
1.580790611e-09
1.005558071e-09
9.895303057e-09
9.89283022e-09
9.88669321e-09
9.876862854e-09
9.863759269e-09
9.847607797e-09
9.828452808e-09
9.806339774e-09
9.781366845e-09
9.753646837e-09
9.723275131e-09
9.69032362e-09
9.654841232e-09
9.616849387e-09
9.576333871e-09
9.533237211e-09
9.48745229e-09
9.438816276e-09
9.387104219e-09
9.332022269e-09
9.273200581e-09
9.210185728e-09
9.142432456e-09
9.069294786e-09
8.990016941e-09
8.90372453e-09
8.809416192e-09
8.705955525e-09
8.592063101e-09
8.46630904e-09
8.327107385e-09
8.172714054e-09
8.00122993e-09
7.810610297e-09
7.598682222e-09
7.363172552e-09
7.101750125e-09
6.812085312e-09
6.491928505e-09
6.139208952e-09
5.752157028e-09
5.329451638e-09
4.870388372e-09
4.375060587e-09
3.844544866e-09
3.28107473e-09
2.688178068e-09
2.070753588e-09
1.435059779e-09
7.885885772e-10
9.933677824e-09
9.931655972e-09
9.92663699e-09
9.918598762e-09
9.907884881e-09
9.894678748e-09
9.879015989e-09
9.86093317e-09
9.840509585e-09
9.817835912e-09
9.792987701e-09
9.766019862e-09
9.736966278e-09
9.705835186e-09
9.672601635e-09
9.637200071e-09
9.599517643e-09
9.559387483e-09
9.516581554e-09
9.470802945e-09
9.421677464e-09
9.368744175e-09
9.311444788e-09
9.249112338e-09
9.180959573e-09
9.106067165e-09
9.023371257e-09
8.931650109e-09
8.829510164e-09
8.715372456e-09
8.587460468e-09
8.443790616e-09
8.282166976e-09
8.100182478e-09
7.895229062e-09
7.664519689e-09
7.405126156e-09
7.114037942e-09
6.788246896e-09
6.424860943e-09
6.021250851e-09
5.57523515e-09
5.085302815e-09
4.550865501e-09
3.972528023e-09
3.352358235e-09
2.694122537e-09
2.00344536e-09
1.287848005e-09
5.566155096e-10
9.976297516e-09
9.974704792e-09
9.970750776e-09
9.964422035e-09
9.955992488e-09
9.945609913e-09
9.933307072e-09
9.919118457e-09
9.903112221e-09
9.885365058e-09
9.865941011e-09
9.844886488e-09
9.822229133e-09
9.79797315e-09
9.772092273e-09
9.744522519e-09
9.71515527e-09
9.683830131e-09
9.650327218e-09
9.614358549e-09
9.575558178e-09
9.533470838e-09
9.487539293e-09
9.43709091e-09
9.381323545e-09
9.319290246e-09
9.249881979e-09
9.171808288e-09
9.083576642e-09
8.983471497e-09
8.869533783e-09
8.739541383e-09
8.59099211e-09
8.42109224e-09
8.2267544e-09
8.004608298e-09
7.751028223e-09
7.462183924e-09
7.134123883e-09
6.762899111e-09
6.344734101e-09
5.876253152e-09
5.354768237e-09
4.778624692e-09
4.147592225e-09
3.463279111e-09
2.729525557e-09
1.952711735e-09
1.14190553e-09
3.087611239e-10
1.00222576e-08
1.002107539e-08
1.001814168e-08
1.001345275e-08
1.000721865e-08
9.999556853e-09
9.99050198e-09
9.980091904e-09
9.968390222e-09
9.955466897e-09
9.941382044e-09
9.926181551e-09
9.909895258e-09
9.892532278e-09
9.874074344e-09
9.854468821e-09
9.833621769e-09
9.811390664e-09
9.78757621e-09
9.761912745e-09
9.734056943e-09
9.703574937e-09
9.669928265e-09
9.632458669e-09
9.590371183e-09
9.542714713e-09
9.488359632e-09
9.425972468e-09
9.353988048e-09
9.270579594e-09
9.173627294e-09
9.060686036e-09
8.928953559e-09
8.775241679e-09
8.595954821e-09
8.387080743e-09
8.144198708e-09
7.862512489e-09
7.536920472e-09
7.162137658e-09
6.732882635e-09
6.244143142e-09
5.691536044e-09
5.071769758e-09
4.383202609e-09
3.626475664e-09
2.805166282e-09
1.926361489e-09
1.001017095e-09
4.394403978e-11
1.007069248e-08
1.006990444e-08
1.006795156e-08
1.006484039e-08
1.006072199e-08
1.005568807e-08
1.004977914e-08
1.004304112e-08
1.003553872e-08
1.002734153e-08
1.001851261e-08
1.000910482e-08
9.999158173e-09
9.988695182e-09
9.977714578e-09
9.966184797e-09
9.954037322e-09
9.94115941e-09
9.927385473e-09
9.912486575e-09
9.896158123e-09
9.878006153e-09
9.857532383e-09
9.834117353e-09
9.807000558e-09
9.775256819e-09
9.737768922e-09
9.693196514e-09
9.639940724e-09
9.576103965e-09
9.499445282e-09
9.407332459e-09
9.296691988e-09
9.163958118e-09
9.005024059e-09
8.815201367e-09
8.58919506e-09
8.321103687e-09
8.004458473e-09
7.632322645e-09
7.197474142e-09
6.692695751e-09
6.111202341e-09
5.447233451e-09
4.696824739e-09
3.858753257e-09
2.935612516e-09
1.934892457e-09
8.698316228e-10
-2.403235109e-10
1.012077211e-08
1.012036323e-08
1.011935386e-08
1.011776116e-08
1.011568154e-08
1.011318499e-08
1.01103213e-08
1.01071484e-08
1.010373698e-08
1.010016194e-08
1.009649566e-08
1.009280476e-08
1.008914673e-08
1.008556525e-08
1.008208454e-08
1.007870361e-08
1.007539009e-08
1.007207302e-08
1.006863379e-08
1.006489535e-08
1.006060957e-08
1.005544346e-08
1.004896348e-08
1.004061703e-08
1.002971e-08
1.001537977e-08
9.99656355e-09
9.97196144e-09
9.939993227e-09
9.898747663e-09
9.845923831e-09
9.778765215e-09
9.693987302e-09
9.587698916e-09
9.455318297e-09
9.291488705e-09
9.090002844e-09
8.843747712e-09
8.544685229e-09
8.183894712e-09
7.751712969e-09
7.238013596e-09
6.632676889e-09
5.926310308e-09
5.111267304e-09
4.182990572e-09
3.141666561e-09
1.994118545e-09
7.557016931e-10
-5.483667215e-10
1.017170016e-08
1.017165563e-08
1.017155192e-08
1.017141701e-08
1.017129687e-08
1.017124335e-08
1.017131839e-08
1.017159526e-08
1.017215489e-08
1.017308248e-08
1.017446525e-08
1.017638947e-08
1.017893647e-08
1.018217804e-08
1.018617177e-08
1.019095629e-08
1.019654568e-08
1.020292231e-08
1.021002784e-08
1.021775269e-08
1.022592411e-08
1.02342927e-08
1.024251617e-08
1.025013951e-08
1.025657093e-08
1.026105292e-08
1.026262727e-08
1.026009275e-08
1.025195422e-08
1.023636219e-08
1.021104114e-08
1.01732048e-08
1.011945797e-08
1.004568438e-08
9.946920068e-09
9.817213479e-09
9.649479221e-09
9.435358071e-09
9.165100029e-09
8.827497273e-09
8.409913819e-09
7.8984772e-09
7.278519429e-09
6.535387221e-09
5.655746646e-09
4.629485661e-09
3.452209435e-09
2.128240533e-09
6.738296281e-10
-8.796262847e-10
1.022271342e-08
1.022301745e-08
1.022377869e-08
1.022503628e-08
1.02267898e-08
1.022907627e-08
1.023197217e-08
1.023556873e-08
1.023996066e-08
1.024524766e-08
1.02515362e-08
1.025893704e-08
1.026756062e-08
1.027751294e-08
1.028889212e-08
1.030178468e-08
1.031626048e-08
1.033236597e-08
1.035011591e-08
1.036948384e-08
1.03903914e-08
1.041269539e-08
1.043617162e-08
1.046049482e-08
1.048521436e-08
1.050972464e-08
1.053322822e-08
1.055468978e-08
1.057277933e-08
1.058580372e-08
1.059162355e-08
1.058755133e-08
1.05702272e-08
1.053547023e-08
1.047810287e-08
1.03917452e-08
1.026857941e-08
1.009909253e-08
9.871812074e-09
9.573058845e-09
9.186764242e-09
8.694431909e-09
8.075364848e-09
7.30735806e-09
6.368130786e-09
5.237933612e-09
3.903561321e-09
2.363999312e-09
6.362705353e-10
-1.239501596e-09
1.02730825e-08
1.027371732e-08
1.027529833e-08
1.027787619e-08
1.028140814e-08
1.028591933e-08
1.029150249e-08
1.029826882e-08
1.030632948e-08
1.031580177e-08
1.032681479e-08
1.033950738e-08
1.035402331e-08
1.037050796e-08
1.038910616e-08
1.040995935e-08
1.04332012e-08
1.045895175e-08
1.048731054e-08
1.051834884e-08
1.055210026e-08
1.058854889e-08
1.062761424e-08
1.066913273e-08
1.071283448e-08
1.075831434e-08
1.080499493e-08
1.085207997e-08
1.089849537e-08
1.094281559e-08
1.098317186e-08
1.101713698e-08
1.104157964e-08
1.10524816e-08
1.10447116e-08
1.101174794e-08
1.09453403e-08
1.083510691e-08
1.066807141e-08
1.042815262e-08
1.009564518e-08
9.646771718e-09
9.053427235e-09
8.283333733e-09
7.300900976e-09
6.069692572e-09
4.556995346e-09
2.744677993e-09
6.426027606e-10
-1.688977788e-09
1.032211437e-08
1.032305965e-08
1.032540988e-08
1.032922736e-08
1.033443106e-08
1.034103679e-08
1.034915459e-08
1.035891675e-08
1.03704526e-08
1.03838991e-08
1.039941015e-08
1.041715519e-08
1.04373146e-08
1.04600772e-08
1.048563921e-08
1.051420235e-08
1.054597034e-08
1.058114455e-08
1.061991909e-08
1.066247495e-08
1.070897228e-08
1.075954045e-08
1.081426562e-08
1.087317519e-08
1.093621735e-08
1.100323427e-08
1.107392748e-08
1.114781431e-08
1.122417156e-08
1.1301962e-08
1.137973905e-08
1.145552456e-08
1.152665073e-08
1.158955333e-08
1.16395033e-08
1.167026243e-08
1.167364156e-08
1.163893692e-08
1.155222408e-08
1.139549537e-08
1.11456519e-08
1.077340795e-08
1.02422831e-08
9.50789029e-09
8.517920635e-09
7.213345391e-09
5.529955553e-09
3.410175225e-09
8.084156984e-10
-2.215690458e-09
1.036915695e-08
1.037038966e-08
1.037345271e-08
1.037841986e-08
1.038517572e-08
1.039372883e-08
1.040420687e-08
1.04167635e-08
1.043154701e-08
1.044871501e-08
1.046844735e-08
1.049094564e-08
1.051642894e-08
1.054513209e-08
1.057730557e-08
1.061321458e-08
1.065313697e-08
1.06973607e-08
1.074618109e-08
1.0799897e-08
1.085880555e-08
1.092319522e-08
1.099333707e-08
1.106947328e-08
1.115180114e-08
1.124045093e-08
1.133545685e-08
1.143671968e-08
1.154395762e-08
1.165663991e-08
1.177389707e-08
1.189440178e-08
1.201621092e-08
1.213655237e-08
1.225153628e-08
1.235576774e-08
1.244182563e-08
1.249955572e-08
1.251511533e-08
1.246969304e-08
1.233782459e-08
1.208522378e-08
1.166629797e-08
1.10214302e-08
1.00760309e-08
8.740168759e-09
6.915694628e-09
4.50334488e-09
1.374543609e-09
-2.47728763e-09
1.041360511e-08
1.041509963e-08
1.041881309e-08
1.042482998e-08
1.043300431e-08
1.044333904e-08
1.04559791e-08
1.0471099e-08
1.048886589e-08
1.050945818e-08
1.053308194e-08
1.055997146e-08
1.05903852e-08
1.062460467e-08
1.066293523e-08
1.070570637e-08
1.075327144e-08
1.080600706e-08
1.086431234e-08
1.092860745e-08
1.099933173e-08
1.107694094e-08
1.116190272e-08
1.125468978e-08
1.135576967e-08
1.146559039e-08
1.158456032e-08
1.171302047e-08
1.185120621e-08
1.199919502e-08
1.215683348e-08
1.232363486e-08
1.249863746e-08
1.268020863e-08
1.286577052e-08
1.305141578e-08
1.323136701e-08
1.339720574e-08
1.353676374e-08
1.363251463e-08
1.365922679e-08
1.358044889e-08
1.334350904e-08
1.28717045e-08
1.205664191e-08
1.07430032e-08
8.750417878e-09
5.846182966e-09
1.899368858e-09
-3.099404881e-09
1.045490725e-08
1.045663562e-08
1.046093084e-08
1.046788701e-08
1.047733127e-08
1.048926232e-08
1.050384135e-08
1.052126247e-08
1.054171091e-08
1.056538522e-08
1.059251704e-08
1.062337263e-08
1.065824889e-08
1.069747265e-08
1.074140244e-08
1.079043029e-08
1.084498318e-08
1.090552447e-08
1.097255527e-08
1.104661535e-08
1.11282856e-08
1.121818992e-08
1.131699499e-08
1.142540917e-08
1.154417942e-08
1.167408558e-08
1.181593207e-08
1.19705336e-08
1.213869223e-08
1.232116459e-08
1.251861467e-08
1.273154193e-08
1.296017464e-08
1.320431708e-08
1.346312908e-08
1.373480364e-08
1.401609308e-08
1.43016091e-08
1.458277468e-08
1.484622587e-08
1.507133041e-08
1.522614095e-08
1.526080871e-08
1.509522516e-08
1.460014657e-08
1.354717857e-08
1.158319422e-08
7.967136312e-09
2.126559842e-09
-7.294797485e-09
1.049257153e-08
1.049450354e-08
1.049930553e-08
1.050707982e-08
1.051763044e-08
1.05309529e-08
1.054722319e-08
1.056665317e-08
1.05894447e-08
1.061581521e-08
1.064602037e-08
1.068035621e-08
1.071915513e-08
1.076278572e-08
1.081165567e-08
1.086621527e-08
1.092696011e-08
1.099443405e-08
1.1069234e-08
1.115201287e-08
1.124348524e-08
1.13444347e-08
1.145571902e-08
1.157827497e-08
1.171312253e-08
1.186136856e-08
1.202421099e-08
1.220294054e-08
1.239893755e-08
1.261366308e-08
1.284864186e-08
1.310542994e-08
1.338555959e-08
1.369045186e-08
1.402127954e-08
1.437875745e-08
1.476281241e-08
1.517208146e-08
1.560314029e-08
1.604930134e-08
1.649872064e-08
1.69312945e-08
1.731350314e-08
1.758867651e-08
1.765986856e-08
1.734208709e-08
1.629383339e-08
1.357566854e-08
7.738116488e-09
-9.334130421e-09
1.052617124e-08
1.052827447e-08
1.053350205e-08
1.054196296e-08
1.055344207e-08
1.05679327e-08
1.058562372e-08
1.060674231e-08
1.063150487e-08
1.06601456e-08
1.069294155e-08
1.073021504e-08
1.077232956e-08
1.081968997e-08
1.08727468e-08
1.093200103e-08
1.099800905e-08
1.107138524e-08
1.115280935e-08
1.124303964e-08
1.134291162e-08
1.145334503e-08
1.15753691e-08
1.17101327e-08
1.185890505e-08
1.20230909e-08
1.220425178e-08
1.240412272e-08
1.26246289e-08
1.286790357e-08
1.313630262e-08
1.343241222e-08
1.375904984e-08