/*--------------------------------*- C++ -*----------------------------------*\
| =========                 |                                                 |
| \\      /  F ield         | foam-extend: Open Source CFD                    |
|  \\    /   O peration     | Version:     4.1                                |
|   \\  /    A nd           | Web:         http://www.foam-extend.org         |
|    \\/     M anipulation  |                                                 |
\*---------------------------------------------------------------------------*/
FoamFile
{
    version     2.0;
    format      ascii;
    class       surfaceScalarField;
    location    "80000";
    object      phi;
}
// * * * * * * * * * * * * * * * * * * * * * * * * * * * * * * * * * * * * * //

dimensions      [0 3 -1 0 0 0 0];

internalField   nonuniform List<scalar> 
31542
(
1.062521042e-07
3.077895807e-09
1.00613941e-07
5.638163026e-09
9.410004882e-08
6.513892196e-09
8.73020504e-08
6.797998347e-09
8.050080826e-08
6.801241926e-09
7.395539376e-08
6.545414185e-09
6.783979285e-08
6.115600605e-09
6.224921819e-08
5.590574514e-09
5.722940044e-08
5.019817887e-09
5.279114259e-08
4.438258265e-09
4.892055914e-08
3.870584068e-09
4.558549193e-08
3.33506787e-09
4.274166454e-08
2.843827951e-09
4.033851736e-08
2.403147579e-09
3.832355575e-08
2.014961882e-09
3.664529512e-08
1.678260853e-09
3.525520487e-08
1.390090471e-09
3.410890467e-08
1.146300438e-09
3.316677678e-08
9.421280812e-10
3.239415171e-08
7.7262512e-10
3.176120507e-08
6.329465121e-10
3.124266781e-08
5.185369512e-10
3.081742364e-08
4.25243774e-10
3.04680499e-08
3.493733053e-10
3.018031373e-08
2.877357598e-10
2.994269192e-08
2.376214333e-10
2.974592981e-08
1.967617226e-10
2.958263854e-08
1.632908346e-10
2.944693508e-08
1.357029984e-10
2.933412588e-08
1.128087658e-10
2.924042308e-08
9.370246633e-11
2.916269588e-08
7.772699707e-11
2.9098511e-08
6.418480717e-11
2.904579947e-08
5.271150986e-11
2.900272591e-08
4.307348968e-11
2.896762306e-08
3.510267265e-11
2.893892854e-08
2.869419069e-11
2.891513938e-08
2.378872226e-11
2.889478096e-08
2.035793353e-11
2.887638734e-08
1.839313491e-11
2.885849336e-08
1.789353609e-11
2.88396382e-08
1.88547808e-11
2.881837805e-08
2.125983788e-11
2.879331997e-08
2.505782097e-11
2.876313833e-08
3.018144697e-11
2.872631497e-08
3.682321119e-11
2.868143464e-08
4.488025355e-11
2.862715422e-08
5.428046654e-11
2.856219829e-08
6.49561127e-11
7.682823813e-11
2.84853703e-08
1.113832658e-07
1.024630055e-09
1.139951999e-07
3.026228794e-09
1.160837955e-07
4.425296237e-09
1.174583867e-07
5.423406703e-09
1.180768309e-07
6.182797313e-09
1.179334297e-07
6.688815174e-09
1.171207586e-07
6.928271808e-09
1.157664141e-07
6.944919222e-09
1.139965021e-07
6.78973017e-09
1.119289849e-07
6.505775841e-09
1.096690294e-07
6.130539943e-09
1.073058254e-07
5.698272239e-09
1.049115029e-07
5.238150861e-09
1.025423022e-07
4.772348737e-09
1.002401189e-07
4.317145808e-09
9.803456806e-08
3.883812224e-09
9.594513016e-08
3.479528914e-09
9.398321879e-08
3.108212253e-09
9.215406956e-08
2.77127763e-09
9.045836104e-08
2.468333778e-09
8.889353712e-08
2.197770416e-09
8.745484587e-08
1.95722813e-09
8.613613683e-08
1.743952798e-09
8.493052064e-08
1.554989645e-09
8.383073868e-08
1.387518112e-09
8.282945768e-08
1.238903083e-09
8.191947428e-08
1.106745952e-09
8.109384243e-08
9.889235842e-10
8.03459492e-08
8.8359709e-10
7.966955456e-08
7.892041872e-10
7.905881841e-08
7.044393507e-10
7.850832781e-08
6.282183773e-10
7.801287576e-08
5.59637774e-10
7.756758226e-08
4.980060725e-10
7.716786251e-08
4.427944105e-10
7.680937723e-08
3.935891056e-10
7.648800156e-08
3.500709092e-10
7.619979342e-08
3.119977303e-10
7.594096579e-08
2.791862581e-10
7.570786434e-08
2.514951533e-10
7.549694788e-08
2.28810504e-10
7.530476841e-08
2.110347254e-10
7.512795129e-08
1.980774075e-10
7.496315897e-08
1.8985058e-10
7.480705838e-08
1.86282499e-10
7.465656156e-08
1.873204999e-10
7.450859402e-08
1.928481915e-10
7.436015081e-08
2.027239488e-10
7.420831367e-08
2.167934583e-10
2.3488447e-10
7.405025767e-08
1.096488395e-07
7.057905331e-10
1.107391205e-07
1.935947717e-09
1.122058713e-07
2.95854512e-09
1.138693751e-07
3.759902464e-09
1.156399561e-07
4.412215959e-09
1.173890614e-07
4.939709646e-09
1.189904103e-07
5.326922951e-09
1.203623821e-07
5.572947887e-09
1.214594306e-07
5.692682307e-09
1.222623718e-07
5.702835307e-09
1.227733857e-07
5.619526615e-09
1.23011434e-07
5.460224364e-09
1.230063768e-07
5.243208308e-09
1.227930674e-07
4.985658385e-09
1.224075938e-07
4.702619546e-09
1.218847576e-07
4.406648561e-09
1.212565489e-07
4.107737779e-09
1.205513134e-07
3.813447745e-09
1.197934455e-07
3.529145394e-09
1.190034372e-07
3.258341811e-09
1.181981435e-07
3.003063814e-09
1.173911646e-07
2.764206635e-09
1.165932745e-07
2.541842596e-09
1.158127829e-07
2.335480917e-09
1.15055997e-07
2.144303633e-09
1.143275839e-07
1.967315803e-09
1.136308752e-07
1.803454295e-09
1.129681277e-07
1.651670878e-09
1.123407366e-07
1.510988147e-09
1.117494086e-07
1.380532322e-09
1.111942993e-07
1.259548832e-09
1.106751121e-07
1.147405832e-09
1.101911626e-07
1.043587373e-09
1.097414788e-07
9.476899169e-10
1.093248567e-07
8.594164649e-10
1.089398889e-07
7.785567212e-10
1.08584991e-07
7.04968505e-10
1.082584246e-07
6.3856377e-10
1.079583152e-07
5.792951967e-10
1.076826667e-07
5.271431745e-10
1.074293732e-07
4.82103574e-10
1.07196225e-07
4.441824057e-10
1.069809193e-07
4.133827004e-10
1.06781076e-07
3.896935207e-10
1.065942607e-07
3.730975113e-10
1.064180201e-07
3.635610109e-10
1.062498537e-07
3.61014654e-10
1.060872281e-07
3.653497566e-10
1.059275954e-07
3.764263574e-10
3.940696492e-10
1.057684104e-07
1.095670341e-07
4.687563209e-10
1.100969856e-07
1.40599603e-09
1.108217579e-07
2.233772732e-09
1.116684535e-07
2.913206708e-09
1.126245133e-07
3.456155907e-09
1.136801511e-07
3.884071696e-09
1.148028342e-07
4.204239824e-09
1.159534162e-07
4.422366015e-09
1.170956628e-07
4.550435989e-09
1.181965342e-07
4.601964164e-09
1.192274044e-07
4.588656827e-09
1.201664832e-07
4.521145856e-09
1.209998236e-07
4.409868063e-09
1.217206589e-07
4.26482317e-09
1.223282588e-07
4.095019632e-09
1.228266274e-07
3.908280033e-09
1.23223145e-07
3.71122018e-09
1.235273253e-07
3.509267487e-09
1.237497675e-07
3.306703217e-09
1.239013542e-07
3.106755148e-09
1.239926844e-07
2.911733691e-09
1.240337047e-07
2.723186515e-09
1.240334941e-07
2.542053457e-09
1.240001641e-07
2.368811207e-09
1.239408632e-07
2.203604932e-09
1.238618191e-07
2.046360398e-09
1.237684031e-07
1.896870712e-09
1.236652107e-07
1.754863716e-09
1.235561463e-07
1.6200531e-09
1.234445046e-07
1.492174624e-09
1.23333045e-07
1.371009238e-09
1.232240558e-07
1.256395873e-09
1.231194077e-07
1.148236244e-09
1.230206025e-07
1.046495856e-09
1.229288152e-07
9.512044109e-10
1.228449256e-07
8.624468104e-10
1.227695429e-07
7.803513983e-10
1.227030276e-07
7.05079131e-10
1.226455097e-07
6.368130479e-10
1.225969032e-07
5.757495296e-10
1.225569236e-07
5.220828315e-10
1.22525093e-07
4.760127172e-10
1.225007579e-07
4.377175558e-10
1.224831072e-07
4.073438791e-10
1.224711799e-07
3.850246016e-10
1.224638848e-07
3.70855855e-10
1.224600098e-07
3.648896017e-10
1.224582306e-07
3.671291037e-10
1.22457131e-07
3.775260816e-10
3.959810558e-10
1.224552196e-07
1.094422793e-07
3.564768908e-10
1.097707205e-07
1.077554678e-09
1.102654725e-07
1.739020678e-09
1.108730615e-07
2.305617688e-09
1.115561943e-07
2.773023077e-09
1.12291549e-07
3.148717229e-09
1.130580338e-07
3.437755193e-09
1.13836801e-07
3.643598962e-09
1.146140975e-07
3.773139601e-09
1.153798436e-07
3.836218208e-09
1.161255246e-07
3.842975916e-09
1.168437766e-07
3.802893864e-09
1.175287217e-07
3.724922839e-09
1.181761335e-07
3.617411222e-09
1.187833547e-07
3.487798146e-09
1.19349178e-07
3.342456416e-09
1.198736884e-07
3.186709628e-09
1.203580514e-07
3.024904308e-09
1.208042659e-07
2.860488681e-09
1.212149162e-07
2.69610492e-09
1.215929503e-07
2.533699614e-09
1.219414945e-07
2.374642333e-09
1.222637069e-07
2.21984102e-09
1.225626701e-07
2.069848075e-09
1.228413192e-07
1.924955894e-09
1.231023999e-07
1.785280006e-09
1.23348445e-07
1.650826e-09
1.235817674e-07
1.521541867e-09
1.238044634e-07
1.397357652e-09
1.240184224e-07
1.278216224e-09
1.242253383e-07
1.16409381e-09
1.244267219e-07
1.055012696e-09
1.24623911e-07
9.510475176e-10
1.248180791e-07
8.523280705e-10
1.250102455e-07
7.590382316e-10
1.252012842e-07
6.714082649e-10
1.25391927e-07
5.897085862e-10
1.255827654e-07
5.142405552e-10
1.257742544e-07
4.453238252e-10
1.259667154e-07
3.832880458e-10
1.26160338e-07
3.284597657e-10
1.263551164e-07
2.812338395e-10
1.265509952e-07
2.418382887e-10
1.267477522e-07
2.105865389e-10
1.269450372e-07
1.877394529e-10
1.271423905e-07
1.735024175e-10
1.273392467e-07
1.68033486e-10
1.275349399e-07
1.714359626e-10
1.277287136e-07
1.837525573e-10
2.04963607e-10
1.279197313e-07
1.09407023e-07
2.794539015e-10
1.096429398e-07
8.416380172e-10
1.100125147e-07
1.369445774e-09
1.104801384e-07
1.837993995e-09
1.110158334e-07
2.237328097e-09
1.115974706e-07
2.567080087e-09
1.122064314e-07
2.828794456e-09
1.12825894e-07
3.024136437e-09
1.134422959e-07
3.156737782e-09
1.140458978e-07
3.232616294e-09
1.146299971e-07
3.258876607e-09
1.151901933e-07
3.242697541e-09
1.157240326e-07
3.191083296e-09
1.162306795e-07
3.110763991e-09
1.167105024e-07
3.007974947e-09
1.171647019e-07
2.888256656e-09
1.175950364e-07
2.756374937e-09
1.180036161e-07
2.616324673e-09
1.183927369e-07
2.471367941e-09
1.1876475e-07
2.324092102e-09
1.191219628e-07
2.176487126e-09
1.194665704e-07
2.03003494e-09
1.198006105e-07
1.885801094e-09
1.201259367e-07
1.74452202e-09
1.204442081e-07
1.606684754e-09
1.207568912e-07
1.472597181e-09
1.210652706e-07
1.34244716e-09
1.213704625e-07
1.216350593e-09
1.216734313e-07
1.094389642e-09
1.219750057e-07
9.766424829e-10
1.22275895e-07
8.632050374e-10
1.225767021e-07
7.542060823e-10
1.22877935e-07
6.498150173e-10
1.231800161e-07
5.502472984e-10
1.234832886e-07
4.55765912e-10
1.237880201e-07
3.66677005e-10
1.240944018e-07
2.833268651e-10
1.244025542e-07
2.06088062e-10
1.24712516e-07
1.353618017e-10
1.250242489e-07
7.155476346e-11
1.253377841e-07
1.492412822e-11
1.256526109e-07
-3.359336727e-11
1.259686082e-07
-7.41593115e-11
1.262854136e-07
-1.062192117e-10
1.266026239e-07
-1.294709626e-10
1.269197605e-07
-1.436342389e-10
1.272362722e-07
-1.484781253e-10
1.275515445e-07
-1.438362645e-10
1.278649077e-07
-1.296105393e-10
-1.057736766e-10
1.281756451e-07
1.09388161e-07
2.212930189e-10
1.095627645e-07
6.670349186e-10
1.098408059e-07
1.091404631e-09
1.102018958e-07
1.476904252e-09
1.106259668e-07
1.813257159e-09
1.110961044e-07
2.096942511e-09
1.115974261e-07
2.327472689e-09
1.121160908e-07
2.505471622e-09
1.126399258e-07
2.632902731e-09
1.131591859e-07
2.713356124e-09
1.136665483e-07
2.751514153e-09
1.141567774e-07
2.752468231e-09
1.146264779e-07
2.721382376e-09
1.150738884e-07
2.663353162e-09
1.154986084e-07
2.583254579e-09
1.159012909e-07
2.485573944e-09
1.162833576e-07
2.374308173e-09
1.166467557e-07
2.252926666e-09
1.169937514e-07
2.124372384e-09
1.173267596e-07
1.991084063e-09
1.17648211e-07
1.855035796e-09
1.179604556e-07
1.717790416e-09
1.182656965e-07
1.580560316e-09
1.185659489e-07
1.44426969e-09
1.188630196e-07
1.309614388e-09
1.191585001e-07
1.177117046e-09
1.194537718e-07
1.047175941e-09
1.197500162e-07
9.201066682e-10
1.200482295e-07
7.96176761e-10
1.203492388e-07
6.756335466e-10
1.206537187e-07
5.58725486e-10
1.209622067e-07
4.457182466e-10
1.212751153e-07
3.369066652e-10
1.215927357e-07
2.3262707e-10
1.219152709e-07
1.332307859e-10
1.222428359e-07
3.911211335e-11
1.225754424e-07
-4.927953849e-11
1.229130183e-07
-1.314878773e-10
1.232554021e-07
-2.07022228e-10
1.236023477e-07
-2.753910203e-10
1.239533797e-07
-3.361081513e-10
1.243083999e-07
-3.886138428e-10
1.24666761e-07
-4.325205e-10
1.250278992e-07
-4.673574182e-10
1.253911425e-07
-4.927141922e-10
1.25755754e-07
-5.082457211e-10
1.261209419e-07
-5.136660111e-10
1.264858635e-07
-5.08757746e-10
1.268496348e-07
-4.933815656e-10
-4.674817937e-10
1.272113431e-07
1.093743671e-07
1.769260919e-10
1.095078315e-07
5.335708172e-10
1.097233016e-07
8.759348432e-10
1.100087135e-07
1.19149261e-09
1.103502918e-07
1.471678921e-09
1.107349832e-07
1.712251057e-09
1.111508884e-07
1.911567335e-09
1.115870613e-07
2.069298668e-09
1.1203372e-07
2.186243947e-09
1.124826541e-07
2.264421856e-09
1.12927342e-07
2.306826105e-09
1.133628161e-07
2.316993967e-09
1.137855068e-07
2.298691368e-09
1.141931176e-07
2.255742163e-09
1.145844752e-07
2.191896803e-09
1.149593439e-07
2.110705232e-09
1.153182315e-07
2.015420697e-09
1.1566221e-07
1.90894834e-09
1.159927553e-07
1.793827283e-09
1.163116064e-07
1.67223315e-09
1.166206466e-07
1.545995663e-09
1.169218082e-07
1.416628734e-09
1.172169994e-07
1.285369113e-09
1.175080502e-07
1.153219085e-09
1.177966751e-07
1.020989774e-09
1.180844499e-07
8.893426196e-10
1.183727985e-07
7.588278455e-10
1.186629872e-07
6.299182668e-10
1.189561261e-07
5.030381867e-10
1.192531715e-07
3.785883625e-10
1.195549305e-07
2.569666006e-10
1.1986207e-07
1.385787642e-10
1.201751535e-07
2.382322978e-11
1.204945657e-07
-8.678509276e-11
1.208206051e-07
-1.928084422e-10
1.211534155e-07
-2.936981634e-10
1.214930384e-07
-3.889023424e-10
1.218394017e-07
-4.778511778e-10
1.221923293e-07
-5.599499143e-10
1.225515286e-07
-6.34590405e-10
1.229165908e-07
-7.011704141e-10
1.232870632e-07
-7.590862587e-10
1.236623061e-07
-8.077634293e-10
1.240416206e-07
-8.466718304e-10
1.244242211e-07
-8.753144406e-10
1.248092327e-07
-8.932572284e-10
1.251957067e-07
-9.001398998e-10
1.255826327e-07
-8.956838112e-10
1.259689533e-07
-8.797021516e-10
-8.521081396e-10
1.2635358e-07
1.093650587e-07
1.418677122e-10
1.094706255e-07
4.280043007e-10
1.096422885e-07
7.042719675e-10
1.09872252e-07
9.615292199e-10
1.1015095e-07
1.192980917e-09
1.104686611e-07
1.394539792e-09
1.108162012e-07
1.564027171e-09
1.111850272e-07
1.700472654e-09
1.115673614e-07
1.803909686e-09
1.119564326e-07
1.875350549e-09
1.123466309e-07
1.916627674e-09
1.127335049e-07
1.930119813e-09
1.131136873e-07
1.918508824e-09
1.134848112e-07
1.88461823e-09
1.138454122e-07
1.83129585e-09
1.141948071e-07
1.761310545e-09
1.145329598e-07
1.677268193e-09
1.148603515e-07
1.58155685e-09
1.151778602e-07
1.476318629e-09
1.15486653e-07
1.363440396e-09
1.157880905e-07
1.24455812e-09
1.160836468e-07
1.121072308e-09
1.163748442e-07
9.94171824e-10
1.166632008e-07
8.648626416e-10
1.169501917e-07
7.339990958e-10
1.1723722e-07
6.023146462e-10
1.175255963e-07
4.704518453e-10
1.178165253e-07
3.389894385e-10
1.181110965e-07
2.084671419e-10
1.184102856e-07
7.939923752e-11
1.187149453e-07
-4.769315834e-11
1.190257973e-07
-1.722732646e-10
1.193434168e-07
-2.93796294e-10
1.196682975e-07
-4.116658222e-10
1.200007702e-07
-5.252810445e-10
1.203410658e-07
-6.339935786e-10
1.206892854e-07
-7.371218011e-10
1.21045394e-07
-8.339597539e-10
1.214092278e-07
-9.237836753e-10
1.217804958e-07
-1.005858392e-09
1.221587743e-07
-1.079448802e-09
1.225435161e-07
-1.143827915e-09
1.22934048e-07
-1.19829524e-09
1.233295725e-07
-1.242196329e-09
1.237291836e-07
-1.274925423e-09
1.241318723e-07
-1.295945557e-09
1.245365379e-07
-1.304805264e-09
1.249420045e-07
-1.301150306e-09
1.253470371e-07
-1.284735078e-09
-1.25543285e-09
1.257503617e-07
1.093584032e-07
1.134647806e-10
1.094438181e-07
3.425896144e-10
1.095832767e-07
5.64813417e-10
1.097715221e-07
7.73283805e-10
1.100018836e-07
9.62619348e-10
1.102672327e-07
1.129190556e-09
1.105605414e-07
1.270718377e-09
1.108751023e-07
1.38591174e-09
1.112046823e-07
1.474329763e-09
1.115437095e-07
1.536323238e-09
1.118874216e-07
1.572915598e-09
1.122319157e-07
1.585625692e-09
1.125741296e-07
1.576294911e-09
1.129117943e-07
1.54695376e-09
1.132433707e-07
1.499719719e-09
1.135679705e-07
1.43671109e-09
1.138852633e-07
1.359975608e-09
1.141953816e-07
1.271438652e-09
1.144988288e-07
1.172871353e-09
1.147963946e-07
1.065874459e-09
1.150890784e-07
9.518742585e-10
1.153780224e-07
8.32128302e-10
1.15664455e-07
7.077392651e-10
1.159496446e-07
5.79673335e-10
1.162348615e-07
4.487824728e-10
1.165213492e-07
3.158272385e-10
1.168102966e-07
1.815046773e-10
1.171028359e-07
4.645018618e-11
1.174000075e-07
-8.870442926e-11
1.177027609e-07
-2.233542109e-10
1.180119445e-07
-3.568768825e-10
1.183283043e-07
-4.886331981e-10
1.186524686e-07
-6.179605913e-10
1.189849608e-07
-7.441579777e-10
1.193261654e-07
-8.664856503e-10
1.196763402e-07
-9.841683007e-10
1.200356113e-07
-1.096392807e-09
1.204039654e-07
-1.202313865e-09
1.207812447e-07
-1.301062938e-09
1.211671433e-07
-1.391756898e-09
1.215612042e-07
-1.473509732e-09
1.219628229e-07
-1.545446481e-09
1.223712478e-07
-1.606719888e-09
1.227855799e-07
-1.656528405e-09
1.23204786e-07
-1.694131436e-09
1.236277084e-07
-1.718867914e-09
1.240530786e-07
-1.730175155e-09
1.244795337e-07
-1.727605019e-09
1.249056369e-07
-1.710838274e-09
-1.679697294e-09
1.253299009e-07
1.093534223e-07
9.004265168e-11
1.094237969e-07
2.722149211e-10
1.095390413e-07
4.495689247e-10
1.096954847e-07
6.168403679e-10
1.098883648e-07
7.697390973e-10
1.101124033e-07
9.05152082e-10
1.103622112e-07
1.020910531e-09
1.106325226e-07
1.115600309e-09
1.109183593e-07
1.18849319e-09
1.112151835e-07
1.239499045e-09
1.115190197e-07
1.269079405e-09
1.118265184e-07
1.278127099e-09
1.121349686e-07
1.267844865e-09
1.124422809e-07
1.239641862e-09
1.12746952e-07
1.195048968e-09
1.13048016e-07
1.135647413e-09
1.133449824e-07
1.063009328e-09
1.136377689e-07
9.786520412e-10
1.139266331e-07
8.840069267e-10
1.142121071e-07
7.804002307e-10
1.144949369e-07
6.690443055e-10
1.147760279e-07
5.510374222e-10
1.150563959e-07
4.273714058e-10
1.153371269e-07
2.989426604e-10
1.15619337e-07
1.665728048e-10
1.159041676e-07
3.099692221e-11
1.16192709e-07
-1.070364708e-10
1.16486033e-07
-2.468738148e-10
1.167851563e-07
-3.878277956e-10
1.170910201e-07
-5.292181078e-10
1.174044884e-07
-6.703452649e-10
1.177263335e-07
-8.104783527e-10
1.180572217e-07
-9.488488352e-10
1.18397707e-07
-1.0846433e-09
1.18748221e-07
-1.216999675e-09
1.191090619e-07
-1.345009269e-09
1.19480386e-07
-1.467716901e-09
1.19862198e-07
-1.584125867e-09
1.202543423e-07
-1.693207311e-09
1.206564966e-07
-1.793911245e-09
1.210681668e-07
-1.885179995e-09
1.214886848e-07
-1.9659646e-09
1.219172087e-07
-2.035243688e-09
1.223527248e-07
-2.09204424e-09
1.227940562e-07
-2.135462609e-09
1.232398746e-07
-2.16468632e-09
1.236887158e-07
-2.179016439e-09
1.241389996e-07
-2.177888605e-09
1.245890535e-07
-2.160891733e-09
-2.127783996e-09
1.250371404e-07
1.093496085e-07
7.043412394e-11
1.094084813e-07
2.133418606e-10
1.095050984e-07
3.529515715e-10
1.096368047e-07
4.851339646e-10
1.09800115e-07
6.064287954e-10
1.099910775e-07
7.141896838e-10
1.102055571e-07
8.064310506e-10
1.104394304e-07
8.817270938e-10
1.106887336e-07
9.39190118e-10
1.109497887e-07
9.784439515e-10
1.112193057e-07
9.995624574e-10
1.114944473e-07
1.002985677e-09
1.117728583e-07
9.894340928e-10
1.120526689e-07
9.598316048e-10
1.123324795e-07
9.15238674e-10
1.126113324e-07
8.56794642e-10
1.128886724e-07
7.856691896e-10
1.131643011e-07
7.030231513e-10
1.134383262e-07
6.099814888e-10
1.13711113e-07
5.076131318e-10
1.139832376e-07
3.969196668e-10
1.14255443e-07
2.788321684e-10
1.145285925e-07
1.542222521e-10
1.148036612e-07
2.387437616e-11
1.150816468e-07
-1.114122816e-10
1.153635922e-07
-2.50948183e-10
1.156505679e-07
-3.940119788e-10
1.15943604e-07
-5.39909791e-10
1.162437093e-07
-6.879332019e-10
1.165518416e-07
-8.373504165e-10
1.168688926e-07
-9.873963089e-10
1.171956751e-07
-1.13726089e-09
1.175329074e-07
-1.286081157e-09
1.178811993e-07
-1.432935252e-09
1.182410384e-07
-1.576838936e-09
1.186127745e-07
-1.716745568e-09
1.189966059e-07
-1.851548396e-09
1.193925659e-07
-1.980086096e-09
1.198005108e-07
-2.101152331e-09
1.20220108e-07
-2.213508563e-09
1.206508278e-07
-2.315899931e-09
1.210919375e-07
-2.40707446e-09
1.215424991e-07
-2.485805392e-09
1.220013709e-07
-2.55091599e-09
1.224672144e-07
-2.601305786e-09
1.229385061e-07
-2.635977732e-09
1.234135554e-07
-2.654065757e-09
1.238905281e-07
-2.654861376e-09
1.243674745e-07
-2.637837954e-09
-2.602671514e-09
1.248423624e-07
1.093466213e-07
5.381269495e-11
1.093964883e-07
1.634745156e-10
1.094784545e-07
2.709851279e-10
1.095905454e-07
3.73042996e-10
1.097301582e-07
4.668160766e-10
1.098943e-07
5.500481215e-10
1.100797819e-07
6.209493124e-10
1.102833686e-07
6.781405163e-10
1.105019014e-07
7.206573002e-10
1.107324044e-07
7.479409342e-10
1.109721706e-07
7.597963297e-10
1.112188226e-07
7.56333781e-10
1.114703482e-07
7.379086726e-10
1.117251144e-07
7.050656207e-10
1.119818656e-07
6.584875773e-10
1.122397099e-07
5.989502521e-10
1.124980947e-07
5.272840186e-10
1.127567774e-07
4.443400245e-10
1.130157893e-07
3.509692183e-10
1.132754018e-07
2.480004065e-10
1.135360781e-07
1.36243432e-10
1.137984805e-07
1.643006747e-11
1.140633581e-07
-1.10654887e-10
1.143315864e-07
-2.443533731e-10
1.146041369e-07
-3.839622533e-10
1.148820023e-07
-5.288132905e-10
1.151662192e-07
-6.782287567e-10
1.154578245e-07
-8.315150016e-10
1.157578425e-07
-9.87951191e-10
1.16067267e-07
-1.146774901e-09
1.163870419e-07
-1.307171175e-09
1.167180435e-07
-1.468262389e-09
1.170610621e-07
-1.629099801e-09
1.174167841e-07
-1.788657375e-09
1.17785773e-07
-1.945828025e-09
1.181684502e-07
-2.099422939e-09
1.185650758e-07
-2.248174199e-09
1.189757303e-07
-2.390740885e-09
1.194002969e-07
-2.52571931e-09
1.198384456e-07
-2.651657449e-09
1.20289619e-07
-2.767073421e-09
1.207530225e-07
-2.870478074e-09
1.212276184e-07
-2.960401533e-09
1.217121254e-07
-3.03542318e-09
1.222050239e-07
-3.094204198e-09
1.227045681e-07
-3.135521678e-09
1.232088059e-07
-3.158303237e-09
1.237156055e-07
-3.161660798e-09
1.242226895e-07
-3.144921856e-09
-3.107656612e-09
1.247276746e-07
1.093442306e-07
3.95818802e-11
1.093868962e-07
1.208085873e-10
1.094571083e-07
2.007729359e-10
1.095533636e-07
2.767878165e-10
1.096736811e-07
3.46498741e-10
1.098157642e-07
4.07965253e-10
1.099771348e-07
4.595788882e-10
1.101552445e-07
5.000309179e-10
1.103475734e-07
5.283283468e-10
1.105517178e-07
5.437965151e-10
1.107654616e-07
5.46052452e-10
1.109868313e-07
5.349640555e-10
1.112141313e-07
5.106086722e-10
1.114459636e-07
4.732333154e-10
1.11681234e-07
4.232169689e-10
1.119191492e-07
3.610347779e-10
1.121592051e-07
2.872276428e-10
1.124011671e-07
2.023776298e-10
1.126450214e-07
1.071145331e-10
1.128910455e-07
1.97618774e-12
1.13139604e-07
-1.123149684e-10
1.133912932e-07
-2.352586994e-10
1.136468587e-07
-3.662198544e-10
1.13907125e-07
-5.046190676e-10
1.141730249e-07
-6.498617259e-10
1.144455518e-07
-8.013400188e-10
1.147257463e-07
-9.584231511e-10
1.150146748e-07
-1.12044342e-09
1.153134085e-07
-1.286684837e-09
1.156230041e-07
-1.456370404e-09
1.159444834e-07
-1.628650332e-09
1.162788126e-07
-1.802591487e-09
1.16626881e-07
-1.977168219e-09
1.169894788e-07
-2.151255193e-09
1.173672734e-07
-2.323622768e-09
1.177607858e-07
-2.492935484e-09
1.181703655e-07
-2.65775413e-09
1.185961663e-07
-2.816541875e-09
1.190381217e-07
-2.967675101e-09
1.194959234e-07
-3.109459384e-09
1.199690005e-07
-3.240150702e-09
1.204565042e-07
-3.357981906e-09
1.209572968e-07
-3.461194317e-09
1.214699475e-07
-3.5480741e-09
1.219927356e-07
-3.616992519e-09
1.225236626e-07
-3.666448774e-09
1.230604733e-07
-3.695113907e-09
1.236006867e-07
-3.70187415e-09
1.241416368e-07
-3.685871621e-09
-3.646539905e-09
1.246805204e-07
1.093422781e-07
2.730357024e-11
1.093790699e-07
8.401662645e-11
1.094396704e-07
1.401725101e-10
1.095229095e-07
1.935489334e-10
1.096272526e-07
2.421559242e-10
1.097509143e-07
2.843038362e-10
1.098919528e-07
3.185404337e-10
1.100483519e-07
3.436318587e-10
1.102180979e-07
3.585822071e-10
1.10399251e-07
3.626432465e-10
1.105900039e-07
3.55299411e-10
1.107887298e-07
3.362379479e-10
1.109940168e-07
3.053215448e-10
1.112046886e-07
2.625612335e-10
1.114198168e-07
2.0808853e-10
1.116387195e-07
1.421316922e-10
1.118609561e-07
6.499058042e-11
1.120863975e-07
-2.306419491e-11
1.123149657e-07
-1.214539325e-10
1.125469056e-07
-2.299636699e-10
1.127826686e-07
-3.480776734e-10
1.130227956e-07
-4.753853198e-10
1.132680091e-07
-6.114328156e-10
1.135191405e-07
-7.55750096e-10
1.137771254e-07
-9.078463408e-10
1.140429823e-07
-1.067196852e-09
1.143177921e-07
-1.233232986e-09
1.146026788e-07
-1.40533012e-09
1.148987892e-07
-1.582795079e-09
1.152072721e-07
-1.764853187e-09
1.155292575e-07
-1.950635488e-09
1.15865833e-07
-2.139166751e-09
1.162180198e-07
-2.329354746e-09
1.165867461e-07
-2.519981346e-09
1.169728194e-07
-2.709696092e-09
1.173768968e-07
-2.897012959e-09
1.177994536e-07
-3.080311083e-09
1.182407517e-07
-3.257840234e-09
1.187008083e-07
-3.427731815e-09
1.191793647e-07
-3.588016026e-09
1.196758594e-07
-3.736645688e-09
1.201894041e-07
-3.871526933e-09
1.207187663e-07
-3.990556738e-09
1.212623587e-07
-4.091666992e-09
1.218182401e-07
-4.172874291e-09
1.22384125e-07
-4.232333938e-09
1.229574069e-07
-4.268395993e-09
1.235351936e-07
-4.279661141e-09
1.241143557e-07
-4.265033885e-09
-4.223769806e-09
1.246915858e-07
1.093406489e-07
1.665452714e-11
1.093725581e-07
5.210754405e-11
1.094251514e-07
8.757940479e-11
1.094974969e-07
1.212036942e-10
1.09588387e-07
1.512661576e-10
1.096964165e-07
1.762745155e-10
1.098200533e-07
1.949037122e-10
1.099576931e-07
2.059920657e-10
1.101077212e-07
2.085538407e-10
1.102685712e-07
2.017929973e-10
1.104387731e-07
1.850971769e-10
1.106169953e-07
1.58015509e-10
1.108020748e-07
1.202417701e-10
1.109930383e-07
7.159743625e-11
1.111891193e-07
1.200728192e-11
1.113897699e-07
-5.851925566e-11
1.115946386e-07
-1.398784552e-10
1.118035282e-07
-2.319540638e-10
1.120165992e-07
-3.34524987e-10
1.122340419e-07
-4.474062234e-10
1.124563026e-07
-5.703381009e-10
1.126839591e-07
-7.030414472e-10
1.129177403e-07
-8.452137532e-10
1.131585077e-07
-9.965174008e-10
1.134072355e-07
-1.156574131e-09
1.136649941e-07
-1.324955571e-09
1.139329331e-07
-1.501172026e-09
1.142122628e-07
-1.68465982e-09
1.145042354e-07
-1.874767517e-09
1.14810124e-07
-2.070741521e-09
1.151312003e-07
-2.271711462e-09
1.1546871e-07
-2.476675966e-09
1.15823845e-07
-2.684489349e-09
1.161977139e-07
-2.893849878e-09
1.165913083e-07
-3.10329038e-09
1.170054675e-07
-3.311172182e-09
1.174408398e-07
-3.515683434e-09
1.178978424e-07
-3.714842825e-09
1.183766202e-07
-3.90650973e-09
1.188770058e-07
-4.088401822e-09
1.193984808e-07
-4.258121103e-09
1.199401425e-07
-4.413189004e-09
1.205006761e-07
-4.551090677e-09
1.210783367e-07
-4.669328179e-09
1.216709435e-07
-4.765481873e-09
1.222758873e-07
-4.837278591e-09
1.228901549e-07
-4.882663852e-09
1.235103684e-07
-4.899874678e-09
1.241328438e-07
-4.887509384e-09
-4.844590326e-09
1.247536642e-07
1.093392428e-07
7.411756879e-12
1.093670212e-07
2.432937768e-11
1.094128302e-07
4.177073961e-11
1.094759022e-07
5.813201708e-11
1.095552715e-07
7.189702976e-11
1.096498108e-07
8.173542917e-11
1.097583126e-07
8.640189287e-11
1.098794941e-07
8.481040441e-11
1.100120605e-07
7.598723046e-11
1.101547379e-07
5.911525533e-11
1.103063348e-07
3.349989425e-11
1.10465768e-07
-1.417920357e-12
1.106320911e-07
-4.608150907e-11
1.108045118e-07
-1.008234711e-10
1.109824094e-07
-1.658905264e-10
1.111653383e-07
-2.414483438e-10
1.113530538e-07
-3.275941326e-10
1.115454787e-07
-4.243790179e-10
1.117427515e-07
-5.317977852e-10
1.119451509e-07
-6.498054561e-10
1.121531395e-07
-7.783264144e-10
1.123673419e-07
-9.172437579e-10
1.125885305e-07
-1.066402316e-09
1.128176153e-07
-1.225602453e-09
1.130556321e-07
-1.394591129e-09
1.13303728e-07
-1.573051623e-09
1.13563147e-07
-1.760591227e-09
1.138352144e-07
-1.956727131e-09
1.141213179e-07
-2.160870842e-09
1.144228883e-07
-2.372311528e-09
1.14741376e-07
-2.590198687e-09
1.150782254e-07
-2.813524675e-09
1.154348443e-07
-3.041107675e-09
1.158125707e-07
-3.27157586e-09
1.162126343e-07
-3.503353707e-09
1.166361138e-07
-3.73465161e-09
1.170838905e-07
-3.963460121e-09
1.175565979e-07
-4.187550262e-09
1.180545695e-07
-4.404481328e-09
1.185777853e-07
-4.611617696e-09
1.191258199e-07
-4.806156111e-09
1.19697795e-07
-4.985164796e-09
1.202923388e-07
-5.145635062e-09
1.209075554e-07
-5.284545343e-09
1.215410097e-07
-5.398936901e-09
1.221897299e-07
-5.485999746e-09
1.228502311e-07
-5.543165811e-09
1.235185609e-07
-5.568204776e-09
1.241903687e-07
-5.55931707e-09
-5.515218183e-09
1.248609969e-07
1.093380391e-07
-6.272359621e-13
1.093622115e-07
1.573595433e-13
1.09402148e-07
1.834502099e-12
1.094571767e-07
3.103552515e-12
1.095265225e-07
2.551379196e-12
1.096092164e-07
-9.584898185e-13
1.097043634e-07
-8.745143073e-12
1.098108883e-07
-2.171465068e-11
1.099277656e-07
-4.089037803e-11
1.100539473e-07
-6.706669545e-11
1.101884753e-07
-1.010282994e-10
1.103304721e-07
-1.434148654e-10
1.104791703e-07
-1.947798168e-10
1.106339378e-07
-2.555909672e-10
1.107942874e-07
-3.262402044e-10
1.109598918e-07
-4.070528362e-10
1.111305935e-07
-4.982957963e-10
1.11306398e-07
-6.001834903e-10
1.114874843e-07
-7.128840219e-10
1.116742022e-07
-8.365232056e-10
1.118670652e-07
-9.711893798e-10
1.120667489e-07
-1.116927627e-09
1.122740837e-07
-1.273737403e-09
1.124900472e-07
-1.441566333e-09
1.127157559e-07
-1.620300171e-09
1.12952455e-07
-1.809750939e-09
1.132015067e-07
-2.009643033e-09
1.134643768e-07
-2.219597171e-09
1.137426187e-07
-2.43911243e-09
1.140378543e-07
-2.667546615e-09
1.143517517e-07
-2.904095334e-09
1.146859979e-07
-3.147770223e-09
1.150422677e-07
-3.397376943e-09
1.15422186e-07
-3.651493787e-09
1.158272845e-07
-3.908451977e-09
1.16258952e-07
-4.166318955e-09
1.167183783e-07
-4.422886308e-09
1.172064921e-07
-4.675664262e-09
1.177238955e-07
-4.921884852e-09
1.182707937e-07
-5.15851589e-09
1.188469253e-07
-5.382287863e-09
1.194514958e-07
-5.589735879e-09
1.200831183e-07
-5.777258458e-09
1.207397659e-07
-5.9411939e-09
1.214187421e-07
-6.077913694e-09
1.221166731e-07
-6.183931171e-09
1.22829529e-07
-6.256021986e-09
1.235526746e-07
-6.291350718e-09
1.242809532e-07
-6.287596041e-09
-6.243065911e-09
1.250088007e-07
1.093371506e-07
-7.777618767e-12
1.093582674e-07
-2.095927056e-11
1.093929705e-07
-3.286838414e-11
1.094408119e-07
-4.473775403e-11
1.095011566e-07
-5.779325254e-11
1.095733426e-07
-7.314455074e-11
1.096564744e-07