/*--------------------------------*- C++ -*----------------------------------*\
| =========                 |                                                 |
| \\      /  F ield         | foam-extend: Open Source CFD                    |
|  \\    /   O peration     | Version:     4.1                                |
|   \\  /    A nd           | Web:         http://www.foam-extend.org         |
|    \\/     M anipulation  |                                                 |
\*---------------------------------------------------------------------------*/
FoamFile
{
    version     2.0;
    format      ascii;
    class       volVectorField;
    location    "80000";
    object      U;
}
// * * * * * * * * * * * * * * * * * * * * * * * * * * * * * * * * * * * * * //

dimensions      [0 1 -1 0 0 0 0];

internalField   nonuniform List<vector> 
15920
(
(0.0002132420807 5.120982926e-06 0)
(0.0002058516358 1.13101112e-05 0)
(0.0001957315577 1.372971848e-05 0)
(0.0001821924008 1.421413826e-05 0)
(0.0001677709095 1.376856488e-05 0)
(0.0001541200996 1.270025522e-05 0)
(0.0001415044977 1.119361379e-05 0)
(0.0001298439101 9.472585952e-06 0)
(0.0001192137703 7.735422191e-06 0)
(0.0001097362181 6.109051772e-06 0)
(0.0001014383223 4.662033113e-06 0)
(9.426020022e-05 3.426434277e-06 0)
(8.81101538e-05 2.408881678e-06 0)
(8.289000111e-05 1.597348003e-06 0)
(7.849759478e-05 9.687634539e-07 0)
(7.482873189e-05 4.956223045e-07 0)
(7.178243618e-05 1.501630423e-07 0)
(6.926532568e-05 -9.335107397e-08 0)
(6.719347718e-05 -2.574756488e-07 0)
(6.549284604e-05 -3.611728281e-07 0)
(6.409917781e-05 -4.199050639e-07 0)
(6.295761808e-05 -4.46001742e-07 0)
(6.202202917e-05 -4.491221733e-07 0)
(6.125412389e-05 -4.36733734e-07 0)
(6.062248001e-05 -4.144753733e-07 0)
(6.010155074e-05 -3.865002922e-07 0)
(5.967074169e-05 -3.557975529e-07 0)
(5.931356891e-05 -3.244604056e-07 0)
(5.901689927e-05 -2.93898855e-07 0)
(5.877028103e-05 -2.650040919e-07 0)
(5.85653362e-05 -2.382676268e-07 0)
(5.839517168e-05 -2.138284623e-07 0)
(5.825433795e-05 -1.914088811e-07 0)
(5.813837137e-05 -1.707022251e-07 0)
(5.804342442e-05 -1.515429132e-07 0)
(5.796602942e-05 -1.337935357e-07 0)
(5.790297365e-05 -1.172726948e-07 0)
(5.785120708e-05 -1.017678753e-07 0)
(5.780776458e-05 -8.705878078e-08 0)
(5.776971404e-05 -7.292216799e-08 0)
(5.773412716e-05 -5.912756787e-08 0)
(5.769807449e-05 -4.5434433e-08 0)
(5.765864507e-05 -3.158937652e-08 0)
(5.761297796e-05 -1.733614386e-08 0)
(5.755842235e-05 -2.491361071e-09 0)
(5.749208624e-05 1.285573168e-08 0)
(5.741104967e-05 2.862880745e-08 0)
(5.731252833e-05 4.481167309e-08 0)
(5.719389629e-05 6.13898952e-08 0)
(5.70526823e-05 7.831649091e-08 0)
(0.0002201183498 5.647075756e-06 0)
(0.000225169652 1.294981829e-05 0)
(0.0002303448885 1.662094329e-05 0)
(0.0002340304311 1.856667498e-05 0)
(0.0002359460868 1.969023964e-05 0)
(0.0002363164024 2.011439029e-05 0)
(0.000235320046 1.988369479e-05 0)
(0.0002331172617 1.91403066e-05 0)
(0.0002299370986 1.804144724e-05 0)
(0.0002260415302 1.670911374e-05 0)
(0.0002216674816 1.523813287e-05 0)
(0.0002170088929 1.370864471e-05 0)
(0.0002122229694 1.218679646e-05 0)
(0.0002074365287 1.072278324e-05 0)
(0.0002027477151 9.351400346e-06 0)
(0.0001982277348 8.094342554e-06 0)
(0.0001939247674 6.962689244e-06 0)
(0.0001898687217 5.959211459e-06 0)
(0.0001860754711 5.080547105e-06 0)
(0.0001825503206 4.319164305e-06 0)
(0.0001792908784 3.664993671e-06 0)
(0.0001762894134 3.106698534e-06 0)
(0.0001735346844 2.63261923e-06 0)
(0.0001710133994 2.231450811e-06 0)
(0.0001687112253 1.892629284e-06 0)
(0.000166613451 1.606565247e-06 0)
(0.0001647054531 1.36478243e-06 0)
(0.0001629730196 1.159963007e-06 0)
(0.0001614025522 9.859161176e-07 0)
(0.0001599811779 8.374980533e-07 0)
(0.0001586967996 7.105074302e-07 0)
(0.00015753812 6.015602627e-07 0)
(0.00015649461 5.080143435e-07 0)
(0.0001555562181 4.278144017e-07 0)
(0.0001547134294 3.593482996e-07 0)
(0.0001539573172 3.013728615e-07 0)
(0.0001532794479 2.529542239e-07 0)
(0.0001526717762 2.13402268e-07 0)
(0.000152126583 1.822121514e-07 0)
(0.0001516364335 1.59019383e-07 0)
(0.0001511941389 1.435640911e-07 0)
(0.0001507927172 1.356604262e-07 0)
(0.0001504253543 1.351650684e-07 0)
(0.0001500853483 1.419450001e-07 0)
(0.000149766087 1.558524891e-07 0)
(0.0001494610598 1.766709034e-07 0)
(0.0001491640758 2.041640607e-07 0)
(0.0001488691123 2.380804314e-07 0)
(0.0001485702578 2.781347265e-07 0)
(0.0001482617531 3.239992989e-07 0)
(0.0002187784406 1.473967365e-06 0)
(0.0002200360642 4.410707348e-06 0)
(0.00022261558 7.055376157e-06 0)
(0.0002259538512 9.422971969e-06 0)
(0.0002295183616 1.15353399e-05 0)
(0.0002330765912 1.327623676e-05 0)
(0.0002364592348 1.454869059e-05 0)
(0.0002394723285 1.534757922e-05 0)
(0.0002419660618 1.571758125e-05 0)
(0.0002438709427 1.571570031e-05 0)
(0.0002451784132 1.540463047e-05 0)
(0.0002459157406 1.485242983e-05 0)
(0.0002461335568 1.412696653e-05 0)
(0.0002458978447 1.328949619e-05 0)
(0.0002452813237 1.239118027e-05 0)
(0.0002443562419 1.147243241e-05 0)
(0.0002431900328 1.056360856e-05 0)
(0.0002418432414 9.686181928e-06 0)
(0.000240368656 8.854166298e-06 0)
(0.0002388111239 8.075642673e-06 0)
(0.0002372078706 7.354215151e-06 0)
(0.0002355891703 6.69027872e-06 0)
(0.000233979193 6.082059867e-06 0)
(0.0002323968458 5.526447568e-06 0)
(0.0002308565704 5.019587953e-06 0)
(0.0002293691576 4.557325428e-06 0)
(0.0002279424547 4.135527676e-06 0)
(0.0002265819323 3.750301508e-06 0)
(0.000225291145 3.39811775e-06 0)
(0.0002240721126 3.075870296e-06 0)
(0.0002229256296 2.780888788e-06 0)
(0.0002218515047 2.51091255e-06 0)
(0.0002208487295 2.264019006e-06 0)
(0.0002199156127 2.038643974e-06 0)
(0.0002190499361 1.833573204e-06 0)
(0.0002182490666 1.647873838e-06 0)
(0.0002175100054 1.480827615e-06 0)
(0.0002168294218 1.331883232e-06 0)
(0.0002162036926 1.200617168e-06 0)
(0.0002156289379 1.086697049e-06 0)
(0.0002151010501 9.898459875e-07 0)
(0.0002146157106 9.09816001e-07 0)
(0.0002141684037 8.463622288e-07 0)
(0.000213754442 7.992289034e-07 0)
(0.0002133690032 7.681632612e-07 0)
(0.0002130071783 7.529401536e-07 0)
(0.0002126640084 7.532714341e-07 0)
(0.0002123344698 7.687785689e-07 0)
(0.0002120134792 7.990027117e-07 0)
(0.0002116959317 8.434154114e-07 0)
(0.0002187703013 1.492841805e-06 0)
(0.000219495271 4.34475128e-06 0)
(0.0002207680641 6.762865742e-06 0)
(0.0002224048164 8.634707488e-06 0)
(0.0002242471986 1.005493362e-05 0)
(0.0002262623753 1.112690861e-05 0)
(0.0002284453339 1.189820342e-05 0)
(0.0002307395372 1.240117762e-05 0)
(0.000233057333 1.26727072e-05 0)
(0.0002353193981 1.274751853e-05 0)
(0.0002374642598 1.265468269e-05 0)
(0.0002394437865 1.242097833e-05 0)
(0.0002412224826 1.207312934e-05 0)
(0.0002427793262 1.163695642e-05 0)
(0.0002441072661 1.113615691e-05 0)
(0.0002452104534 1.059176114e-05 0)
(0.0002461010651 1.00219361e-05 0)
(0.0002467965933 9.44183417e-06 0)
(0.0002473176199 8.863544714e-06 0)
(0.0002476860003 8.296238823e-06 0)
(0.0002479234854 7.746479456e-06 0)
(0.000248050788 7.218616812e-06 0)
(0.0002480870236 6.715206535e-06 0)
(0.0002480494199 6.237409779e-06 0)
(0.0002479532317 5.785399206e-06 0)
(0.0002478118022 5.358696294e-06 0)
(0.0002476366905 4.956425931e-06 0)
(0.0002474378221 4.577510971e-06 0)
(0.0002472236539 4.220819461e-06 0)
(0.0002470013428 3.885269844e-06 0)
(0.0002467769042 3.569899021e-06 0)
(0.0002465553527 3.273900393e-06 0)
(0.0002463408203 2.996642292e-06 0)
(0.0002461366558 2.73768824e-06 0)
(0.0002459455143 2.496789802e-06 0)
(0.000245769433 2.273851533e-06 0)
(0.0002456098884 2.06889717e-06 0)
(0.0002454678403 1.882044414e-06 0)
(0.0002453437701 1.713480315e-06 0)
(0.0002452377131 1.563435968e-06 0)
(0.0002451492923 1.432161234e-06 0)
(0.0002450777407 1.319917845e-06 0)
(0.0002450219203 1.226910176e-06 0)
(0.0002449803585 1.153315695e-06 0)
(0.0002449512773 1.099282101e-06 0)
(0.0002449326166 1.064885653e-06 0)
(0.0002449220659 1.050094941e-06 0)
(0.0002449170856 1.054763894e-06 0)
(0.0002449149294 1.078636997e-06 0)
(0.0002449126799 1.121351337e-06 0)
(0.0002187111811 1.041228006e-06 0)
(0.0002191151852 3.029873362e-06 0)
(0.0002199263867 4.801020862e-06 0)
(0.0002210625103 6.2961792e-06 0)
(0.000222388887 7.527509092e-06 0)
(0.0002238231412 8.51945502e-06 0)
(0.0002253306821 9.279419831e-06 0)
(0.0002268835283 9.814116544e-06 0)
(0.0002284490431 1.014347606e-05 0)
(0.000229999546 1.029570024e-05 0)
(0.000231515987 1.02990957e-05 0)
(0.0002329838905 1.017975072e-05 0)
(0.00023439053 9.961992172e-06 0)
(0.0002357254615 9.668201973e-06 0)
(0.0002369815779 9.318179418e-06 0)
(0.0002381551404 8.928846458e-06 0)
(0.0002392452479 8.514307188e-06 0)
(0.0002402533212 8.086021904e-06 0)
(0.0002411826618 7.653007872e-06 0)
(0.0002420379899 7.222091282e-06 0)
(0.0002428249674 6.798214461e-06 0)
(0.0002435497739 6.384766156e-06 0)
(0.0002442187706 5.983903598e-06 0)
(0.0002448382513 5.596850079e-06 0)
(0.0002454142677 5.224164959e-06 0)
(0.0002459525195 4.865965858e-06 0)
(0.0002464582931 4.522101859e-06 0)
(0.0002469364352 4.19228985e-06 0)
(0.0002473913508 3.876220625e-06 0)
(0.0002478270184 3.573635671e-06 0)
(0.000248247013 3.284377397e-06 0)
(0.0002486545316 3.008418032e-06 0)
(0.0002490524159 2.745871629e-06 0)
(0.000249443172 2.49699573e-06 0)
(0.0002498289875 2.262184052e-06 0)
(0.0002502117499 2.041948552e-06 0)
(0.0002505930616 1.836896403e-06 0)
(0.0002509742451 1.647703362e-06 0)
(0.0002513563456 1.475089841e-06 0)
(0.0002517401337 1.319798219e-06 0)
(0.000252126127 1.182532242e-06 0)
(0.0002525145221 1.064114666e-06 0)
(0.0002529052325 9.651917197e-07 0)
(0.0002532979734 8.863341169e-07 0)
(0.0002536921942 8.280842127e-07 0)
(0.0002540870749 7.908788131e-07 0)
(0.0002544815785 7.750215881e-07 0)
(0.0002548744713 7.806785779e-07 0)
(0.0002552643295 8.07874591e-07 0)
(0.0002556495551 8.564891464e-07 0)
(0.0002186955776 7.988889969e-07 0)
(0.0002189807479 2.365610274e-06 0)
(0.0002195714189 3.825921177e-06 0)
(0.00022042801 5.115497559e-06 0)
(0.0002214580274 6.207525764e-06 0)
(0.0002225912505 7.09986724e-06 0)
(0.0002237893823 7.796238005e-06 0)
(0.0002250243645 8.303417766e-06 0)
(0.0002262675457 8.63514186e-06 0)
(0.0002274936701 8.811090907e-06 0)
(0.000228685299 8.852865787e-06 0)
(0.0002298319269 8.781714818e-06 0)
(0.0002309274011 8.618091367e-06 0)
(0.0002319686274 8.381318505e-06 0)
(0.000232955169 8.088936489e-06 0)
(0.0002338887294 7.756203612e-06 0)
(0.0002347724521 7.395959198e-06 0)
(0.0002356103421 7.018717986e-06 0)
(0.0002364068911 6.632853689e-06 0)
(0.0002371668122 6.244828303e-06 0)
(0.0002378948219 5.859457685e-06 0)
(0.0002385954687 5.480192834e-06 0)
(0.0002392730154 5.109392853e-06 0)
(0.0002399313712 4.748574562e-06 0)
(0.0002405740573 4.398632985e-06 0)
(0.0002412042008 4.060029813e-06 0)
(0.0002418245491 3.732948932e-06 0)
(0.0002424374959 3.417421384e-06 0)
(0.0002430451139 3.113423231e-06 0)
(0.0002436491876 2.820948497e-06 0)
(0.0002442512471 2.540060269e-06 0)
(0.0002448525971 2.270924076e-06 0)
(0.0002454543423 2.013826358e-06 0)
(0.0002460574084 1.769182981e-06 0)
(0.0002466625573 1.537532679e-06 0)
(0.0002472703966 1.319531908e-06 0)
(0.000247881385 1.115947326e-06 0)
(0.0002484958344 9.276265968e-07 0)
(0.0002491139097 7.554689306e-07 0)
(0.0002497355905 6.004071105e-07 0)
(0.000250360892 4.634259261e-07 0)
(0.0002509893756 3.453262235e-07 0)
(0.0002516203464 2.470305349e-07 0)
(0.0002522532673 1.694052434e-07 0)
(0.0002528874727 1.131532299e-07 0)
(0.0002535220599 7.887517377e-08 0)
(0.0002541559819 6.706275459e-08 0)
(0.0002547880722 7.806569447e-08 0)
(0.0002554170456 1.120747757e-07 0)
(0.0002560415113 1.691140079e-07 0)
(0.0002186869951 6.29691843e-07 0)
(0.0002188998816 1.871185632e-06 0)
(0.000219340848 3.044333521e-06 0)
(0.0002199909645 4.099323038e-06 0)
(0.0002207930706 5.009750031e-06 0)
(0.0002216987781 5.769332502e-06 0)
(0.0002226769654 6.379518214e-06 0)
(0.000223702897 6.844063882e-06 0)
(0.0002247517525 7.170106547e-06 0)
(0.0002258005391 7.368872968e-06 0)
(0.0002268313364 7.454166415e-06 0)
(0.0002278317074 7.44066282e-06 0)
(0.000228793444 7.343098126e-06 0)
(0.0002297116032 7.175861162e-06 0)
(0.0002305840923 6.952534432e-06 0)
(0.0002314112672 6.68546522e-06 0)
(0.0002321953578 6.385524946e-06 0)
(0.0002329398786 6.062041954e-06 0)
(0.0002336491529 5.722828158e-06 0)
(0.0002343279456 5.374260107e-06 0)
(0.0002349811708 5.021406032e-06 0)
(0.0002356136626 4.66818802e-06 0)
(0.0002362300111 4.317561278e-06 0)
(0.0002368344579 3.97169433e-06 0)
(0.000237430837 3.632140259e-06 0)
(0.0002380225511 3.299992847e-06 0)
(0.000238612572 2.976023117e-06 0)
(0.0002392034575 2.660794104e-06 0)
(0.0002397973786 2.354754222e-06 0)
(0.0002403961506 2.058311453e-06 0)
(0.000241001267 1.771889469e-06 0)
(0.0002416139314 1.495968381e-06 0)
(0.0002422350873 1.231107751e-06 0)
(0.0002428654369 9.779788794e-07 0)
(0.0002435054665 7.373504661e-07 0)
(0.0002441554703 5.100787335e-07 0)
(0.0002448156022 2.971065518e-07 0)
(0.0002454858031 9.946455368e-08 0)
(0.000246165813 -8.174851283e-08 0)
(0.0002468552476 -2.454012256e-07 0)
(0.0002475533655 -3.903206904e-07 0)
(0.000248259562 -5.155088078e-07 0)
(0.0002489731456 -6.198525853e-07 0)
(0.0002496929574 -7.023079766e-07 0)
(0.0002504176606 -7.620042933e-07 0)
(0.0002511458627 -7.981837822e-07 0)
(0.0002518760461 -8.102118067e-07 0)
(0.0002526065703 -7.976131316e-07 0)
(0.0002533357018 -7.600924163e-07 0)
(0.0002540616383 -6.97545866e-07 0)
(0.0002186806484 5.007688312e-07 0)
(0.0002188434405 1.490392122e-06 0)
(0.0002191827144 2.434682132e-06 0)
(0.0002196900434 3.299118172e-06 0)
(0.0002203282434 4.061663462e-06 0)
(0.0002210629105 4.712559294e-06 0)
(0.0002218691593 5.248419131e-06 0)
(0.0002227262677 5.668956168e-06 0)
(0.000223614191 5.977076334e-06 0)
(0.0002245144055 6.179211781e-06 0)
(0.0002254116822 6.284437851e-06 0)
(0.000226294525 6.303176895e-06 0)
(0.0002271546059 6.246339166e-06 0)
(0.0002279861973 6.124865259e-06 0)
(0.0002287858835 5.949360907e-06 0)
(0.0002295523174 5.729752983e-06 0)
(0.0002302858696 5.475042113e-06 0)
(0.0002309882253 5.193178683e-06 0)
(0.0002316620218 4.891028392e-06 0)
(0.0002323105462 4.574394127e-06 0)
(0.0002329374818 4.24808031e-06 0)
(0.0002335466955 3.915990863e-06 0)
(0.0002341420676 3.581248391e-06 0)
(0.0002347273651 3.246321754e-06 0)
(0.0002353061525 2.913152615e-06 0)
(0.0002358817328 2.583274542e-06 0)
(0.0002364571127 2.257920688e-06 0)
(0.0002370349856 1.938117581e-06 0)
(0.0002376177279 1.624764798e-06 0)
(0.0002382074037 1.318699359e-06 0)
(0.0002388057754 1.020750446e-06 0)
(0.0002394143138 7.317763166e-07 0)
(0.0002400342204 4.526879443e-07 0)
(0.0002406664827 1.844568437e-07 0)
(0.0002413117767 -7.185191239e-08 0)
(0.0002419705287 -3.150774363e-07 0)
(0.0002426429098 -5.439907453e-07 0)
(0.0002433288926 -7.573026477e-07 0)
(0.0002440282424 -9.536715257e-07 0)
(0.0002447404914 -1.131733369e-06 0)
(0.0002454649274 -1.290168178e-06 0)
(0.0002462006743 -1.427536266e-06 0)
(0.0002469466634 -1.542578886e-06 0)
(0.0002477015592 -1.634124724e-06 0)
(0.0002484638501 -1.701055212e-06 0)
(0.0002492318785 -1.742391813e-06 0)
(0.0002500038235 -1.757331366e-06 0)
(0.000250777719 -1.745262514e-06 0)
(0.0002515514884 -1.705785442e-06 0)
(0.000252322978 -1.638728204e-06 0)
(0.0002186763523 4.006761541e-07 0)
(0.0002188051656 1.19470465e-06 0)
(0.0002190744513 1.958243251e-06 0)
(0.0002194802901 2.666090769e-06 0)
(0.0002199968342 3.299849519e-06 0)
(0.0002205993434 3.848930379e-06 0)
(0.0002212689682 4.307974922e-06 0)
(0.0002219893448 4.674959173e-06 0)
(0.0002227445414 4.950759311e-06 0)
(0.0002235196673 5.139022063e-06 0)
(0.0002243020214 5.245579691e-06 0)
(0.0002250814961 5.27762007e-06 0)
(0.0002258503667 5.243026496e-06 0)
(0.0002266029809 5.14995663e-06 0)
(0.0002273355517 5.00652471e-06 0)
(0.0002280459761 4.820518905e-06 0)
(0.0002287335994 4.599180081e-06 0)
(0.0002293989393 4.349066532e-06 0)
(0.0002300434214 4.075992507e-06 0)
(0.0002306691475 3.785017276e-06 0)
(0.0002312786943 3.480470539e-06 0)
(0.0002318749395 3.166006489e-06 0)
(0.0002324609145 2.844678469e-06 0)
(0.0002330396875 2.519024984e-06 0)
(0.000233614273 2.191159712e-06 0)
(0.0002341875645 1.862859693e-06 0)
(0.0002347622866 1.535649099e-06 0)
(0.000235340962 1.210870927e-06 0)
(0.0002359258898 8.897581118e-07 0)
(0.0002365191343 5.734845203e-07 0)
(0.0002371225252 2.632092118e-07 0)
(0.0002377376452 -3.988588626e-08 0)
(0.0002383658095 -3.345599957e-07 0)
(0.000239008044 -6.195209154e-07 0)
(0.0002396651797 -8.933895275e-07 0)
(0.000240337807 -1.154691933e-06 0)
(0.0002410262456 -1.401880754e-06 0)
(0.0002417305579 -1.633359313e-06 0)
(0.0002424505501 -1.847492553e-06 0)
(0.000243185768 -2.042618359e-06 0)
(0.0002439354954 -2.217071115e-06 0)
(0.00024469876 -2.369195319e-06 0)
(0.0002454743416 -2.497429785e-06 0)
(0.0002462607695 -2.600297451e-06 0)
(0.000247056335 -2.676431261e-06 0)
(0.000247859118 -2.724631479e-06 0)
(0.0002486670048 -2.743898104e-06 0)
(0.0002494777116 -2.73345375e-06 0)
(0.0002502888191 -2.692768792e-06 0)
(0.0002510978093 -2.6215845e-06 0)
(0.0002186732681 3.208210276e-07 0)
(0.000218777599 9.580590035e-07 0)
(0.0002189959463 1.574045887e-06 0)
(0.0002193265947 2.149874777e-06 0)
(0.000219750927 2.670809736e-06 0)
(0.0002202510445 3.127298208e-06 0)
(0.0002208129705 3.513650692e-06 0)
(0.0002214239905 3.826923457e-06 0)
(0.0002220713699 4.066522557e-06 0)
(0.0002227430074 4.234021754e-06 0)
(0.0002234283307 4.332799158e-06 0)
(0.0002241186293 4.367520703e-06 0)
(0.0002248069828 4.343659905e-06 0)
(0.0002254881031 4.267134846e-06 0)
(0.0002261582108 4.144026839e-06 0)
(0.0002268149099 3.980342323e-06 0)
(0.0002274570258 3.781820609e-06 0)
(0.0002280844115 3.55380005e-06 0)
(0.0002286977525 3.301139804e-06 0)
(0.0002292983866 3.02818439e-06 0)
(0.0002298881425 2.738760701e-06 0)
(0.0002304691968 2.436201187e-06 0)
(0.0002310439506 2.123387441e-06 0)
(0.0002316149254 1.802806694e-06 0)
(0.0002321846796 1.476616811e-06 0)
(0.0002327557429 1.146707931e-06 0)
(0.0002333305609 8.147796973e-07 0)
(0.0002339114596 4.823850306e-07 0)
(0.0002345006219 1.50987133e-07 0)
(0.0002351000485 -1.779819712e-07 0)
(0.0002357115367 -5.030866028e-07 0)
(0.0002363366784 -8.228563817e-07 0)
(0.0002369768571 -1.135756881e-06 0)
(0.000237633224 -1.440163877e-06 0)
(0.0002383066924 -1.73437666e-06 0)
(0.000238997912 -2.016620853e-06 0)
(0.0002397072633 -2.285040154e-06 0)
(0.0002404348603 -2.537704021e-06 0)
(0.0002411805371 -2.77262848e-06 0)
(0.000241943833 -2.987798266e-06 0)
(0.0002427239859 -3.181196504e-06 0)
(0.0002435199336 -3.350835907e-06 0)
(0.0002443303197 -3.494797651e-06 0)
(0.0002451534938 -3.611271476e-06 0)
(0.0002459875202 -3.698590887e-06 0)
(0.000246830202 -3.755276032e-06 0)
(0.000247679107 -3.780074374e-06 0)
(0.0002485315963 -3.771996039e-06 0)
(0.0002493848607 -3.730346434e-06 0)
(0.000250235965 -3.654754638e-06 0)
(0.0002186709546 2.556638708e-07 0)
(0.000218756981 7.646316892e-07 0)
(0.0002189371689 1.258683346e-06 0)
(0.0002192110014 1.723407758e-06 0)
(0.0002195646185 2.147082916e-06 0)
(0.0002199847788 2.52144171e-06 0)
(0.000220461063 2.840917092e-06 0)
(0.0002209836396 3.102046172e-06 0)
(0.0002215423773 3.30326773e-06 0)
(0.000222127494 3.444790654e-06 0)
(0.0002227302898 3.528336473e-06 0)
(0.0002233434061 3.556783144e-06 0)
(0.0002239608045 3.533812808e-06 0)
(0.0002245777025 3.463619751e-06 0)
(0.00022519052 3.350674519e-06 0)
(0.000225796807 3.199526314e-06 0)
(0.0002263951367 3.014640696e-06 0)
(0.0002269849718 2.80027791e-06 0)
(0.0002275665238 2.560412392e-06 0)
(0.0002281406164 2.298686529e-06 0)
(0.000228708559 2.018392322e-06 0)
(0.0002292720316 1.722476515e-06 0)
(0.0002298329808 1.413566106e-06 0)
(0.0002303935308 1.093999682e-06 0)
(0.0002309559023 7.658867132e-07 0)
(0.000231522362 4.311385041e-07 0)
(0.0002320951629 9.151619336e-08 0)
(0.0002326764805 -2.512965261e-07 0)
(0.0002332683998 -5.956617284e-07 0)
(0.000233872889 -9.399465738e-07 0)
(0.0002344917638 -1.282485984e-06 0)
(0.0002351266644 -1.621555344e-06 0)
(0.000235779035 -1.95535476e-06 0)
(0.0002364501008 -2.281986778e-06 0)
(0.0002371408515 -2.59945331e-06 0)
(0.0002378520226 -2.905651631e-06 0)
(0.0002385840733 -3.198373714e-06 0)
(0.000239337169 -3.47532146e-06 0)
(0.0002401111636 -3.734130292e-06 0)
(0.0002409055832 -3.972394415e-06 0)
(0.0002417196143 -4.187697714e-06 0)
(0.0002425520962 -4.377650699e-06 0)
(0.0002434015198 -4.539934434e-06 0)
(0.000244266029 -4.672348785e-06 0)
(0.00024514343 -4.772857911e-06 0)
(0.0002460312125 -4.839639263e-06 0)
(0.000246926577 -4.871134063e-06 0)
(0.0002478264703 -4.866093766e-06 0)
(0.0002487276283 -4.823620902e-06 0)
(0.000249626628 -4.743203938e-06 0)
(0.0002186691807 2.015945868e-07 0)
(0.0002187411936 6.039669266e-07 0)
(0.0002188921108 9.959753856e-07 0)
(0.0002191220561 1.366400546e-06 0)
(0.0002194203913 1.705806697e-06 0)
(0.000219777098 2.007121176e-06 0)
(0.0002201843596 2.265170274e-06 0)
(0.0002206346131 2.476367948e-06 0)
(0.0002211198472 2.638640089e-06 0)
(0.000221632188 2.751340418e-06 0)
(0.0002221645141 2.815060678e-06 0)
(0.0002227106707 2.831379434e-06 0)
(0.000223265476 2.80261238e-06 0)
(0.0002238247084 2.731593414e-06 0)
(0.0002243850993 2.621487839e-06 0)
(0.0002249443014 2.475632236e-06 0)
(0.000225500821 2.29740076e-06 0)
(0.0002260539285 2.090099939e-06 0)
(0.0002266035592 1.856894203e-06 0)
(0.0002271502115 1.600756922e-06 0)
(0.0002276948504 1.324446906e-06 0)
(0.0002282388185 1.030494185e-06 0)
(0.0002287837439 7.212328481e-07 0)
(0.000229331478 3.987980043e-07 0)
(0.0002298840183 6.515855429e-08 0)
(0.0002304434238 -2.778180911e-07 0)
(0.0002310118043 -6.283521051e-07 0)
(0.0002315912766 -9.846952923e-07 0)
(0.0002321838968 -1.345097273e-06 0)
(0.0002327916354 -1.707779049e-06 0)
(0.0002334163493 -2.070898745e-06 0)
(0.0002340597505 -2.432522492e-06 0)
(0.0002347233776 -2.790604656e-06 0)
(0.0002354085655 -3.142971983e-06 0)
(0.0002361164185 -3.487314939e-06 0)
(0.0002368477816 -3.821187689e-06 0)
(0.0002376032102 -4.142014778e-06 0)
(0.0002383829428 -4.447104997e-06 0)
(0.0002391868754 -4.733673665e-06 0)
(0.0002400145379 -4.998872215e-06 0)
(0.0002408650728 -5.239824982e-06 0)
(0.0002417372214 -5.453673529e-06 0)
(0.000242629315 -5.637627903e-06 0)
(0.0002435392743 -5.789022733e-06 0)
(0.0002444646167 -5.905375629e-06 0)
(0.0002454024751 -5.984448008e-06 0)
(0.0002463496278 -6.02430662e-06 0)
(0.0002473025395 -6.023382077e-06 0)
(0.0002482574128 -5.980521592e-06 0)
(0.00024921025 -5.895034067e-06 0)
(0.0002186677896 1.560952975e-07 0)
(0.0002187288232 4.686741973e-07 0)
(0.0002188567693 7.742573386e-07 0)
(0.0002190520905 1.06393928e-06 0)
(0.0002193064213 1.330029857e-06 0)
(0.0002196120358 1.566500865e-06 0)
(0.0002199630225 1.768669467e-06 0)
(0.000220353559 1.933027133e-06 0)
(0.0002207773125 2.057235072e-06 0)
(0.000221227948 2.14008596e-06 0)
(0.0002216996527 2.181375049e-06 0)
(0.0002221873188 2.181726094e-06 0)
(0.0002226865618 2.142416743e-06 0)
(0.0002231937324 2.065218336e-06 0)
(0.0002237059366 1.95225172e-06 0)
(0.0002242210298 1.805859489e-06 0)
(0.0002247375789 1.628497898e-06 0)
(0.000225254805 1.422648969e-06 0)
(0.0002257725146 1.190759249e-06 0)
(0.0002262910288 9.3517361e-07 0)
(0.0002268111004 6.581516547e-07 0)
(0.0002273338678 3.618026703e-07 0)
(0.0002278607685 4.811002943e-08 0)
(0.0002283934456 -2.810271601e-07 0)
(0.0002289337448 -6.238026691e-07 0)
(0.00022948365 -9.784548598e-07 0)
(0.0002300452081 -1.343234113e-06 0)
(0.0002306204993 -1.716389434e-06 0)
(0.0002312115956 -2.09612452e-06 0)
(0.0002318205236 -2.480562928e-06 0)
(0.0002324492298 -2.8677196e-06 0)
(0.0002330995435 -3.255475949e-06 0)
(0.00023377314 -3.641559903e-06 0)
(0.0002344715054 -4.023531072e-06 0)
(0.0002351958987 -4.398772271e-06 0)
(0.0002359473146 -4.764489109e-06 0)
(0.0002367264441 -5.117716736e-06 0)
(0.0002375336371 -5.455334461e-06 0)
(0.0002383688667 -5.774090272e-06 0)
(0.0002392316945 -6.070634919e-06 0)
(0.0002401212407 -6.341564974e-06 0)
(0.0002410361594 -6.583474985e-06 0)
(0.0002419746224 -6.793018196e-06 0)
(0.0002429343121 -6.966974423e-06 0)
(0.0002439124262 -7.102322896e-06 0)
(0.0002449056947 -7.196318028e-06 0)
(0.0002459104113 -7.246565923e-06 0)
(0.0002469224801 -7.25109857e-06 0)
(0.0002479374761 -7.208442023e-06 0)
(0.0002489507194 -7.117675212e-06 0)
(0.0002186666752 1.17365835e-07 0)
(0.0002187189233 3.534614886e-07 0)
(0.0002188284691 5.851303193e-07 0)
(0.0002189959457 8.051792379e-07 0)
(0.0002192146397 1.007252203e-06 0)
(0.0002194784862 1.186182456e-06 0)
(0.0002197829685 1.337759861e-06 0)
(0.0002201235856 1.458633734e-06 0)
(0.0002204953232 1.546347307e-06 0)
(0.0002208930862 1.599334549e-06 0)
(0.0002213121447 1.616837674e-06 0)
(0.0002217482894 1.598786234e-06 0)
(0.0002221978532 1.545674301e-06 0)
(0.0002226577355 1.458444972e-06 0)
(0.000223125435 1.338381984e-06 0)
(0.0002235990625 1.187010001e-06 0)
(0.0002240773246 1.00601049e-06 0)
(0.0002245594942 7.97136818e-07 0)
(0.0002250453408 5.622195676e-07 0)
(0.0002255351269 3.030415602e-07 0)
(0.0002260295174 2.130674583e-08 0)
(0.0002265294949 -2.812637536e-07 0)
(0.0002270363956 -6.03019126e-07 0)
(0.0002275518111 -9.423383732e-07 0)
(0.0002280775161 -1.297608745e-06 0)
(0.0002286154444 -1.667223349e-06 0)
(0.0002291676412 -2.049539222e-06 0)
(0.0002297362233 -2.44284745e-06 0)
(0.0002303233383 -2.84534129e-06 0)
(0.0002309311241 -3.255085316e-06 0)
(0.000231561669 -3.669987781e-06 0)
(0.000232216971 -4.087775504e-06 0)
(0.0002328988962 -4.505972396e-06 0)
(0.0002336091349 -4.921883247e-06 0)
(0.0002343491563 -5.332583941e-06 0)
(0.0002351201607 -5.73491912e-06 0)
(0.0002359230307 -6.125508157e-06 0)
(0.0002367582822 -6.500760842e-06 0)
(0.000237626015 -6.856904136e-06 0)
(0.000238525866 -7.190020484e-06 0)
(0.0002394569667 -7.496097612e-06 0)
(0.0002404179066 -7.771089758e-06 0)
(0.0002414067058 -8.010990025e-06 0)
(0.0002424207997 -8.211912739e-06 0)
(0.0002434570367 -8.370183624e-06 0)
(0.0002445116936 -8.48243483e-06 0)
(0.0002455805078 -8.545701659e-06 0)
(0.0002466587292 -8.557517361e-06 0)
(0.0002477411924 -8.516001408e-06 0)
(0.000248822405 -8.419936313e-06 0)
(0.0002186657644 8.409620979e-08 0)
(0.0002187108406 2.544671751e-07 0)
(0.0002188053573 4.22423049e-07 0)
(0.0002189500197 5.820568275e-07 0)
(0.0002191393436 7.280313035e-07 0)
(0.0002193684903 8.558705065e-07 0)
(0.0002196339731 9.617826853e-07 0)
(0.0002199322947 1.042604127e-06 0)
(0.0002202594746 1.095848681e-06 0)
(0.0002206114133 1.119724943e-06 0)
(0.0002209842708 1.113086326e-06 0)
(0.0002213745964 1.075348347e-06 0)
(0.0002217793519 1.006403615e-06 0)
(0.0002221959408 9.065405065e-07 0)
(0.0002226222466 7.763642003e-07 0)
(0.0002230566581 6.167219255e-07 0)
(0.0002234980507 4.286380219e-07 0)
(0.0002239458422 2.132711462e-07 0)
(0.0002243998796 -2.820419458e-08 0)
(0.0002248603207 -2.945163873e-07 0)
(0.0002253278254 -5.843846918e-07 0)
(0.0002258034411 -8.965065588e-07 0)
(0.0002262884425 -1.229571548e-06 0)
(0.0002267843801 -1.582262139e-06 0)
(0.0002272930347 -1.953219193e-06 0)
(0.0002278163705 -2.341022855e-06 0)
(0.0002283564963 -2.74416494e-06 0)
(0.0002289156268 -3.161019543e-06 0)
(0.0002294960426 -3.58981326e-06 0)
(0.0002301000493 -4.028594439e-06 0)
(0.0002307299361 -4.475203156e-06 0)
(0.0002313879316 -4.927243366e-06 0)
(0.0002320761565 -5.382058599e-06 0)
(0.0002327965728 -5.836712488e-06 0)
(0.00023355093 -6.28797542e-06 0)
(0.0002343407071 -6.732319108e-06 0)
(0.000235167052 -7.165920704e-06 0)
(0.0002360307181 -7.584678091e-06 0)
(0.0002369320003 -7.984237804e-06 0)
(0.0002378706729 -8.36003688e-06 0)
(0.0002388459308 -8.70735941e-06 0)
(0.0002398563372 -9.021408045e-06 0)
(0.0002408997817 -9.297390223e-06 0)
(0.0002419734515 -9.53061814e-06 0)
(0.0002430738204 -9.716620383e-06 0)
(0.0002441966587 -9.851261587e-06 0)
(0.0002453370655 -9.930865557e-06 0)
(0.0002464895264 -9.952337095e-06 0)
(0.0002476479979 -9.91327702e-06 0)
(0.0002488060151 -9.812083519e-06 0)
(0.0002186650039 5.532096047e-08 0)
(0.0002187041071 1.688248533e-07 0)
(0.000218786115 2.815219814e-07 0)
(0.0002189117384 3.884983735e-07 0)
(0.0002190764246 4.851962243e-07 0)
(0.0002192762583 5.676832186e-07 0)
(0.0002195085247 6.325125531e-07 0)
(0.0002197704924 6.767030994e-07 0)
(0.0002200589874 6.977827042e-07 0)
(0.0002203707046 6.938200131e-07 0)
(0.0002207025288 6.633902626e-07 0)
(0.0002210516446 6.055195612e-07 0)
(0.000221415557 5.196314292e-07 0)
(0.0002217921221 4.054924033e-07 0)
(0.0002221795876 2.631511051e-07 0)
(0.0002225766238 9.288650155e-08 0)
(0.0002229823481 -1.048467859e-07 0)
(0.0002233962291 -3.294465949e-07 0)
(0.0002238181747 -5.802560091e-07 0)
(0.0002242485699 -8.564905273e-07 0)
(0.0002246880953 -1.15726964e-06 0)
(0.0002251377415 -1.481725339e-06 0)
(0.0002255988281 -1.82892235e-06 0)
(0.0002260729593 -2.197851855e-06 0)
(0.0002265619779 -2.58742167e-06 0)
(0.0002270679363 -2.99643293e-06 0)
(0.0002275930628 -3.423552699e-06 0)
(0.0002281397264 -3.867284089e-06 0)
(0.0002287103988 -4.325934022e-06 0)
(0.000229307615 -4.797579422e-06 0)
(0.0002299339307 -5.280033415e-06 0)
(0.0002305918749 -5.770813057e-06 0)
(0.0002312838982 -6.267109845e-06 0)
(0.0002320123156 -6.765764537e-06 0)
(0.0002327792433 -7.263248114e-06 0)
(0.0002335865296 -7.755651063e-06 0)
(0.000234435681 -8.238683123e-06 0)
(0.0002353277828 -8.707685658e-06 0)
(0.0002362634182 -9.157658883e-06 0)
(0.0002372425853 -9.58330609e-06 0)
(0.0002382646185 -9.979096608e-06 0)
(0.0002393281151 -1.033934843e-05 0)
(0.0002404308732 -1.065833048e-05 0)
(0.0002415698448 -1.093038366e-05 0)
(0.0002427411099 -1.115005874e-05 0)
(0.0002439398779 -1.131226739e-05 0)
(0.0002451605176 -1.14124402e-05 0)
(0.0002463966205 -1.144668463e-05 0)
(0.0002476410987 -1.14119354e-05 0)
(0.0002488863166 -1.130608876e-05 0)
(0.0002186643445 3.033303461e-08 0)
(0.0002186983526 9.445742036e-08 0)
(0.0002187697637 1.590416e-07 0)
(0.0002188792314 2.199718399e-07 0)
(0.0002190228979 2.733058403e-07 0)
(0.0002191975472 3.155559709e-07 0)
(0.0002194010525 3.435350727e-07 0)