/*--------------------------------*- C++ -*----------------------------------*\
| =========                 |                                                 |
| \\      /  F ield         | foam-extend: Open Source CFD                    |
|  \\    /   O peration     | Version:     4.1                                |
|   \\  /    A nd           | Web:         http://www.foam-extend.org         |
|    \\/     M anipulation  |                                                 |
\*---------------------------------------------------------------------------*/
FoamFile
{
    version     2.0;
    format      ascii;
    class       volVectorField;
    location    "80000";
    object      vorticity;
}
// * * * * * * * * * * * * * * * * * * * * * * * * * * * * * * * * * * * * * //

dimensions      [0 0 -1 0 0 0 0];

internalField   nonuniform List<vector> 
15920
(
(0 -0 -0.008256431259)
(0 -0 -0.008405207368)
(0 -0 -0.008448928247)
(0 -0 -0.008323485478)
(0 -0 -0.008112187001)
(0 -0 -0.007873103817)
(0 -0 -0.007617182605)
(0 -0 -0.007345678225)
(0 -0 -0.007067105733)
(0 -0 -0.006792389693)
(0 -0 -0.006529181517)
(0 -0 -0.006281710648)
(0 -0 -0.00605238962)
(0 -0 -0.005842533551)
(0 -0 -0.00565244934)
(0 -0 -0.005481594344)
(0 -0 -0.005328868406)
(0 -0 -0.005192871915)
(0 -0 -0.00507207451)
(0 -0 -0.004964924068)
(0 -0 -0.004869921847)
(0 -0 -0.004785671056)
(0 -0 -0.004710902571)
(0 -0 -0.004644484296)
(0 -0 -0.00458541827)
(0 -0 -0.004532833089)
(0 -0 -0.004485972899)
(0 -0 -0.004444184303)
(0 -0 -0.004406902622)
(0 -0 -0.004373638398)
(0 -0 -0.004343963325)
(0 -0 -0.004317494364)
(0 -0 -0.004293900803)
(0 -0 -0.004272895139)
(0 -0 -0.004254214359)
(0 -0 -0.004237610178)
(0 -0 -0.00422284779)
(0 -0 -0.004209704318)
(0 -0 -0.004197965809)
(0 -0 -0.004187424671)
(0 -0 -0.004177878127)
(0 -0 -0.004169127379)
(0 -0 -0.00416097753)
(0 -0 -0.004153239075)
(0 -0 -0.004145735391)
(0 -0 -0.004138284916)
(0 -0 -0.004130703611)
(0 -0 -0.004122813786)
(0 -0 -0.004114445461)
(0 -0 -0.004105435702)
(0 -0 0.0003541951549)
(0 -0 -9.341878803e-06)
(0 -0 -0.0003972590276)
(0 -0 -0.0007984965987)
(0 -0 -0.001196256159)
(0 -0 -0.001574293453)
(0 -0 -0.001923446835)
(0 -0 -0.002238624557)
(0 -0 -0.002515825651)
(0 -0 -0.002752777351)
(0 -0 -0.002949813544)
(0 -0 -0.003109394217)
(0 -0 -0.003235114598)
(0 -0 -0.003331041775)
(0 -0 -0.003401385596)
(0 -0 -0.003450267978)
(0 -0 -0.003481530211)
(0 -0 -0.003498611868)
(0 -0 -0.003504504755)
(0 -0 -0.003501754393)
(0 -0 -0.003492485499)
(0 -0 -0.003478440406)
(0 -0 -0.003461024469)
(0 -0 -0.003441354187)
(0 -0 -0.003420303948)
(0 -0 -0.003398548308)
(0 -0 -0.003376599316)
(0 -0 -0.003354838926)
(0 -0 -0.003333546538)
(0 -0 -0.003312921848)
(0 -0 -0.003293104312)
(0 -0 -0.003274188987)
(0 -0 -0.003256231477)
(0 -0 -0.003239261478)
(0 -0 -0.003223291273)
(0 -0 -0.003208320596)
(0 -0 -0.0031943399)
(0 -0 -0.003181332847)
(0 -0 -0.003169278132)
(0 -0 -0.003158150679)
(0 -0 -0.003147922433)
(0 -0 -0.003138562698)
(0 -0 -0.003130038059)
(0 -0 -0.003122312096)
(0 -0 -0.00311534347)
(0 -0 -0.003109094052)
(0 -0 -0.003103523937)
(0 -0 -0.003098589563)
(0 -0 -0.003094243687)
(0 -0 -0.00309043573)
(0 -0 0.0001740778379)
(0 -0 0.0002530228396)
(0 -0 0.0003168431024)
(0 -0 0.0003445113881)
(0 -0 0.0003303093833)
(0 -0 0.0002764143083)
(0 -0 0.0001892778028)
(0 -0 7.677675693e-05)
(0 -0 -5.320166157e-05)
(0 -0 -0.0001933811261)
(0 -0 -0.0003375173251)
(0 -0 -0.0004806394711)
(0 -0 -0.0006190636066)
(0 -0 -0.0007502506061)
(0 -0 -0.0008726176154)
(0 -0 -0.0009853436649)
(0 -0 -0.001088182217)
(0 -0 -0.001181293489)
(0 -0 -0.001265106457)
(0 -0 -0.001340212374)
(0 -0 -0.001407286239)
(0 -0 -0.001467031376)
(0 -0 -0.001520142563)
(0 -0 -0.001567282208)
(0 -0 -0.001609068181)
(0 -0 -0.001646068532)
(0 -0 -0.001678800346)
(0 -0 -0.001707731297)
(0 -0 -0.001733282813)
(0 -0 -0.001755834022)
(0 -0 -0.001775726036)
(0 -0 -0.0017932664)
(0 -0 -0.00180873092)
(0 -0 -0.0018223699)
(0 -0 -0.001834410953)
(0 -0 -0.001845060955)
(0 -0 -0.001854508575)
(0 -0 -0.001862926543)
(0 -0 -0.001870473395)
(0 -0 -0.001877294871)
(0 -0 -0.001883525094)
(0 -0 -0.001889287564)
(0 -0 -0.001894695997)
(0 -0 -0.001899855177)
(0 -0 -0.001904861023)
(0 -0 -0.001909803432)
(0 -0 -0.001914763842)
(0 -0 -0.001919816185)
(0 -0 -0.001925027511)
(0 -0 -0.001930458067)
(0 -0 0.0001472850173)
(0 -0 0.000150168179)
(0 -0 0.000161032771)
(0 -0 0.0001801285143)
(0 -0 0.0002048945202)
(0 -0 0.0002311507463)
(0 -0 0.0002544277797)
(0 -0 0.0002711385983)
(0 -0 0.0002789988967)
(0 -0 0.0002769773195)
(0 -0 0.0002650850206)
(0 -0 0.0002440981673)
(0 -0 0.0002152599901)
(0 -0 0.0001800233527)
(0 -0 0.0001398650352)
(0 -0 9.616651023e-05)
(0 -0 5.014752373e-05)
(0 -0 2.838618492e-06)
(0 -0 -4.492000052e-05)
(0 -0 -9.246395156e-05)
(0 -0 -0.0001392824865)
(0 -0 -0.0001849938937)
(0 -0 -0.0002293217285)
(0 -0 -0.0002720732929)
(0 -0 -0.0003131217832)
(0 -0 -0.000352391571)
(0 -0 -0.0003898464016)
(0 -0 -0.00042548022)
(0 -0 -0.0004593101449)
(0 -0 -0.0004913711269)
(0 -0 -0.0005217119053)
(0 -0 -0.0005503919564)
(0 -0 -0.0005774790327)
(0 -0 -0.000603047499)
(0 -0 -0.0006271769443)
(0 -0 -0.0006499509818)
(0 -0 -0.0006714563027)
(0 -0 -0.0006917818867)
(0 -0 -0.0007110182707)
(0 -0 -0.000729256893)
(0 -0 -0.0007465894899)
(0 -0 -0.0007631075059)
(0 -0 -0.0007789016292)
(0 -0 -0.0007940613297)
(0 -0 -0.0008086745702)
(0 -0 -0.0008228276102)
(0 -0 -0.0008366044452)
(0 -0 -0.0008500864782)
(0 -0 -0.0008633523183)
(0 -0 -0.0008764775613)
(0 -0 0.0001032720087)
(0 -0 0.0001042852831)
(0 -0 0.0001055905494)
(0 -0 0.0001076983339)
(0 -0 0.0001113653196)
(0 -0 0.0001172202643)
(0 -0 0.0001254855707)
(0 -0 0.0001359048584)
(0 -0 0.0001478353395)
(0 -0 0.00016040505)
(0 -0 0.0001726804787)
(0 -0 0.0001838096035)
(0 -0 0.0001931129117)
(0 -0 0.0002001186567)
(0 -0 0.0002045580551)
(0 -0 0.0002063376736)
(0 -0 0.0002055016465)
(0 -0 0.0002021925409)
(0 -0 0.0001966163103)
(0 -0 0.0001890139279)
(0 -0 0.000179640142)
(0 -0 0.0001687486162)
(0 -0 0.0001565822611)
(0 -0 0.0001433675071)
(0 -0 0.0001293113823)
(0 -0 0.0001146004504)
(0 -0 9.940092746e-05)
(0 -0 8.385949132e-05)
(0 -0 6.810444545e-05)
(0 -0 5.224702239e-05)
(0 -0 3.638270075e-05)
(0 -0 2.059246799e-05)
(0 -0 4.944001722e-06)
(0 -0 -1.050724155e-05)
(0 -0 -2.571703787e-05)
(0 -0 -4.065146344e-05)
(0 -0 -5.528606206e-05)
(0 -0 -6.960504663e-05)
(0 -0 -8.360042219e-05)
(0 -0 -9.727148765e-05)
(0 -0 -0.0001106240826)
(0 -0 -0.0001236662115)
(0 -0 -0.0001364130368)
(0 -0 -0.0001488858648)
(0 -0 -0.0001611102922)
(0 -0 -0.0001731154324)
(0 -0 -0.0001849333244)
(0 -0 -0.0001965984067)
(0 -0 -0.0002081470607)
(0 -0 -0.0002196171831)
(0 -0 7.959619997e-05)
(0 -0 7.998187546e-05)
(0 -0 8.045795639e-05)
(0 -0 8.097103129e-05)
(0 -0 8.152556984e-05)
(0 -0 8.220506656e-05)
(0 -0 8.316309592e-05)
(0 -0 8.458522175e-05)
(0 -0 8.663764091e-05)
(0 -0 8.942323726e-05)
(0 -0 9.295860919e-05)
(0 -0 9.717430281e-05)
(0 -0 0.0001019318116)
(0 -0 0.0001070482938)
(0 -0 0.0001123218395)
(0 -0 0.0001175530308)
(0 -0 0.0001225606622)
(0 -0 0.0001271912141)
(0 -0 0.0001313229369)
(0 -0 0.0001348659853)
(0 -0 0.0001377600439)
(0 -0 0.0001399706044)
(0 -0 0.0001414847328)
(0 -0 0.0001423068717)
(0 -0 0.0001424549964)
(0 -0 0.0001419572674)
(0 -0 0.0001408492125)
(0 -0 0.0001391714113)
(0 -0 0.0001369676218)
(0 -0 0.0001342832815)
(0 -0 0.0001311643104)
(0 -0 0.0001276561557)
(0 -0 0.0001238030453)
(0 -0 0.0001196473609)
(0 -0 0.0001152291422)
(0 -0 0.0001105859588)
(0 -0 0.0001057515557)
(0 -0 0.0001007568798)
(0 -0 9.563016486e-05)
(0 -0 9.039664675e-05)
(0 -0 8.507820635e-05)
(0 -0 7.96893166e-05)
(0 -0 7.424371417e-05)
(0 -0 6.875338794e-05)
(0 -0 6.322741989e-05)
(0 -0 5.767198183e-05)
(0 -0 5.209041032e-05)
(0 -0 4.648332048e-05)
(0 -0 4.084876093e-05)
(0 -0 3.51823772e-05)
(0 -0 6.282052089e-05)
(0 -0 6.311218952e-05)
(0 -0 6.347752556e-05)
(0 -0 6.389474479e-05)
(0 -0 6.434591665e-05)
(0 -0 6.481100457e-05)
(0 -0 6.527274345e-05)
(0 -0 6.572664391e-05)
(0 -0 6.618732149e-05)
(0 -0 6.668678939e-05)
(0 -0 6.726708065e-05)
(0 -0 6.79713311e-05)
(0 -0 6.883586227e-05)
(0 -0 6.988450935e-05)
(0 -0 7.112581207e-05)
(0 -0 7.255300313e-05)
(0 -0 7.414606898e-05)
(0 -0 7.587491658e-05)
(0 -0 7.770284037e-05)
(0 -0 7.958976749e-05)
(0 -0 8.14950004e-05)
(0 -0 8.337934399e-05)
(0 -0 8.520661413e-05)
(0 -0 8.694459633e-05)
(0 -0 8.856555886e-05)
(0 -0 9.004643303e-05)
(0 -0 9.136876e-05)
(0 -0 9.251848454e-05)
(0 -0 9.348565319e-05)
(0 -0 9.426405915e-05)
(0 -0 9.485085722e-05)
(0 -0 9.52461235e-05)
(0 -0 9.545270147e-05)
(0 -0 9.547458242e-05)
(0 -0 9.531810676e-05)
(0 -0 9.499126117e-05)
(0 -0 9.450415049e-05)
(0 -0 9.386746065e-05)
(0 -0 9.309170335e-05)
(0 -0 9.218767734e-05)
(0 -0 9.116660148e-05)
(0 -0 9.003572866e-05)
(0 -0 8.880368222e-05)
(0 -0 8.748036898e-05)
(0 -0 8.607555811e-05)
(0 -0 8.459844152e-05)
(0 -0 8.305743298e-05)
(0 -0 8.146004941e-05)
(0 -0 7.981282597e-05)
(0 -0 7.812124224e-05)
(0 -0 4.999188004e-05)
(0 -0 5.024215313e-05)
(0 -0 5.054608492e-05)
(0 -0 5.088802116e-05)
(0 -0 5.126075621e-05)
(0 -0 5.165758686e-05)
(0 -0 5.206986604e-05)
(0 -0 5.248747443e-05)
(0 -0 5.290061276e-05)
(0 -0 5.33014733e-05)
(0 -0 5.368542662e-05)
(0 -0 5.405175804e-05)
(0 -0 5.440375567e-05)
(0 -0 5.474799027e-05)
(0 -0 5.509300495e-05)
(0 -0 5.544785143e-05)
(0 -0 5.582081047e-05)
(0 -0 5.621844448e-05)
(0 -0 5.664501665e-05)
(0 -0 5.710226097e-05)
(0 -0 5.758944828e-05)
(0 -0 5.810366427e-05)
(0 -0 5.864020526e-05)
(0 -0 5.919301329e-05)
(0 -0 5.975509976e-05)
(0 -0 6.031893348e-05)
(0 -0 6.087678282e-05)
(0 -0 6.142101317e-05)
(0 -0 6.19443216e-05)
(0 -0 6.24399668e-05)
(0 -0 6.290175925e-05)
(0 -0 6.332416238e-05)
(0 -0 6.37025685e-05)
(0 -0 6.403436227e-05)
(0 -0 6.431737975e-05)
(0 -0 6.454979459e-05)
(0 -0 6.473150138e-05)
(0 -0 6.486288484e-05)
(0 -0 6.494448833e-05)
(0 -0 6.497717693e-05)
(0 -0 6.496232987e-05)
(0 -0 6.490577331e-05)
(0 -0 6.481136851e-05)
(0 -0 6.468185017e-05)
(0 -0 6.451983441e-05)
(0 -0 6.432798888e-05)
(0 -0 6.410905943e-05)
(0 -0 6.386582213e-05)
(0 -0 6.360101214e-05)
(0 -0 6.331725059e-05)
(0 -0 4.00321269e-05)
(0 -0 4.025600886e-05)
(0 -0 4.052001578e-05)
(0 -0 4.080912942e-05)
(0 -0 4.111731875e-05)
(0 -0 4.144045551e-05)
(0 -0 4.177449758e-05)
(0 -0 4.211515489e-05)
(0 -0 4.245799352e-05)
(0 -0 4.279847129e-05)
(0 -0 4.313198167e-05)
(0 -0 4.345408426e-05)
(0 -0 4.376087794e-05)
(0 -0 4.404933898e-05)
(0 -0 4.431750995e-05)
(0 -0 4.456453429e-05)
(0 -0 4.479056684e-05)
(0 -0 4.49965878e-05)
(0 -0 4.518415431e-05)
(0 -0 4.535514123e-05)
(0 -0 4.551151667e-05)
(0 -0 4.565517204e-05)
(0 -0 4.578780251e-05)
(0 -0 4.591082516e-05)
(0 -0 4.602532506e-05)
(0 -0 4.613203237e-05)
(0 -0 4.623131581e-05)
(0 -0 4.632324604e-05)
(0 -0 4.640745962e-05)
(0 -0 4.648338122e-05)
(0 -0 4.655051516e-05)
(0 -0 4.66084776e-05)
(0 -0 4.665639081e-05)
(0 -0 4.669443536e-05)
(0 -0 4.672241162e-05)
(0 -0 4.674005309e-05)
(0 -0 4.674624418e-05)
(0 -0 4.674035083e-05)
(0 -0 4.672262934e-05)
(0 -0 4.669370413e-05)
(0 -0 4.665440687e-05)
(0 -0 4.660584754e-05)
(0 -0 4.654932089e-05)
(0 -0 4.648627258e-05)
(0 -0 4.641824692e-05)
(0 -0 4.634685882e-05)
(0 -0 4.627377492e-05)
(0 -0 4.6200687e-05)
(0 -0 4.612928477e-05)
(0 -0 4.606123118e-05)
(0 -0 3.207995475e-05)
(0 -0 3.229431336e-05)
(0 -0 3.254104146e-05)
(0 -0 3.28048696e-05)
(0 -0 3.307989969e-05)
(0 -0 3.336231487e-05)
(0 -0 3.3648735e-05)
(0 -0 3.393590057e-05)
(0 -0 3.422073995e-05)
(0 -0 3.450038244e-05)
(0 -0 3.477210597e-05)
(0 -0 3.503331903e-05)
(0 -0 3.528159749e-05)
(0 -0 3.551474043e-05)
(0 -0 3.573082049e-05)
(0 -0 3.592822671e-05)
(0 -0 3.610569705e-05)
(0 -0 3.626232809e-05)
(0 -0 3.639755913e-05)
(0 -0 3.651114397e-05)
(0 -0 3.660312716e-05)
(0 -0 3.667382636e-05)
(0 -0 3.67238108e-05)
(0 -0 3.675386766e-05)
(0 -0 3.676494396e-05)
(0 -0 3.675812164e-05)
(0 -0 3.673440137e-05)
(0 -0 3.669481521e-05)
(0 -0 3.664062422e-05)
(0 -0 3.657306409e-05)
(0 -0 3.649336896e-05)
(0 -0 3.640285833e-05)
(0 -0 3.630280391e-05)
(0 -0 3.619336921e-05)
(0 -0 3.60751388e-05)
(0 -0 3.594910214e-05)
(0 -0 3.581636679e-05)
(0 -0 3.567806932e-05)
(0 -0 3.553537542e-05)
(0 -0 3.538949401e-05)
(0 -0 3.524168157e-05)
(0 -0 3.509324654e-05)
(0 -0 3.494554557e-05)
(0 -0 3.479997977e-05)
(0 -0 3.46579868e-05)
(0 -0 3.452102474e-05)
(0 -0 3.439055468e-05)
(0 -0 3.426802388e-05)
(0 -0 3.415485163e-05)
(0 -0 3.405241541e-05)
(0 -0 2.558913671e-05)
(0 -0 2.580359412e-05)
(0 -0 2.604611103e-05)
(0 -0 2.630076217e-05)
(0 -0 2.656156143e-05)
(0 -0 2.682478501e-05)
(0 -0 2.708732899e-05)
(0 -0 2.734631466e-05)
(0 -0 2.759906639e-05)
(0 -0 2.784310729e-05)
(0 -0 2.807614407e-05)
(0 -0 2.829608035e-05)
(0 -0 2.850104922e-05)
(0 -0 2.868943735e-05)
(0 -0 2.885989326e-05)
(0 -0 2.901132447e-05)
(0 -0 2.914288531e-05)
(0 -0 2.925395069e-05)
(0 -0 2.93440819e-05)
(0 -0 2.941300146e-05)
(0 -0 2.946059144e-05)
(0 -0 2.948691196e-05)
(0 -0 2.949221397e-05)
(0 -0 2.947696441e-05)
(0 -0 2.944169676e-05)
(0 -0 2.938711806e-05)
(0 -0 2.931425612e-05)
(0 -0 2.92242104e-05)
(0 -0 2.911825186e-05)
(0 -0 2.899765619e-05)
(0 -0 2.886352859e-05)
(0 -0 2.871683815e-05)
(0 -0 2.855880365e-05)
(0 -0 2.839070704e-05)
(0 -0 2.821385692e-05)
(0 -0 2.802959809e-05)
(0 -0 2.783931651e-05)
(0 -0 2.764443514e-05)
(0 -0 2.744640866e-05)
(0 -0 2.724671658e-05)
(0 -0 2.704685436e-05)
(0 -0 2.684832642e-05)
(0 -0 2.665264047e-05)
(0 -0 2.646130203e-05)
(0 -0 2.627580753e-05)
(0 -0 2.609763265e-05)
(0 -0 2.592821964e-05)
(0 -0 2.576896445e-05)
(0 -0 2.562120357e-05)
(0 -0 2.548619929e-05)
(0 -0 2.020233945e-05)
(0 -0 2.042267502e-05)
(0 -0 2.06688327e-05)
(0 -0 2.092400094e-05)
(0 -0 2.118195994e-05)
(0 -0 2.143895038e-05)
(0 -0 2.169198001e-05)
(0 -0 2.193835817e-05)
(0 -0 2.217560754e-05)
(0 -0 2.240143433e-05)
(0 -0 2.261371841e-05)
(0 -0 2.281053719e-05)
(0 -0 2.299020286e-05)
(0 -0 2.315128847e-05)
(0 -0 2.329263844e-05)
(0 -0 2.341336821e-05)
(0 -0 2.351284882e-05)
(0 -0 2.35906727e-05)
(0 -0 2.364660856e-05)
(0 -0 2.368056926e-05)
(0 -0 2.369260236e-05)
(0 -0 2.36829244e-05)
(0 -0 2.365184147e-05)
(0 -0 2.359984645e-05)
(0 -0 2.352774791e-05)
(0 -0 2.343647387e-05)
(0 -0 2.332716744e-05)
(0 -0 2.320099489e-05)
(0 -0 2.30589903e-05)
(0 -0 2.290227021e-05)
(0 -0 2.273209235e-05)
(0 -0 2.254977166e-05)
(0 -0 2.235666146e-05)
(0 -0 2.215415036e-05)
(0 -0 2.194366314e-05)
(0 -0 2.172666309e-05)
(0 -0 2.150465241e-05)
(0 -0 2.127916541e-05)
(0 -0 2.105175694e-05)
(0 -0 2.082399218e-05)
(0 -0 2.059743922e-05)
(0 -0 2.037366304e-05)
(0 -0 2.015421903e-05)
(0 -0 1.99406437e-05)
(0 -0 1.973444296e-05)
(0 -0 1.953707957e-05)
(0 -0 1.934996149e-05)
(0 -0 1.917442969e-05)
(0 -0 1.901174387e-05)
(0 -0 1.886306718e-05)
(0 -0 1.56693477e-05)
(0 -0 1.589945589e-05)
(0 -0 1.615446199e-05)
(0 -0 1.641651999e-05)
(0 -0 1.667907233e-05)
(0 -0 1.693822592e-05)
(0 -0 1.719097807e-05)
(0 -0 1.743468964e-05)
(0 -0 1.766695106e-05)
(0 -0 1.788553553e-05)
(0 -0 1.808839107e-05)
(0 -0 1.827366909e-05)
(0 -0 1.843976251e-05)
(0 -0 1.858533187e-05)
(0 -0 1.870931598e-05)
(0 -0 1.881093296e-05)
(0 -0 1.88896645e-05)
(0 -0 1.894521989e-05)
(0 -0 1.897748478e-05)
(0 -0 1.898650224e-05)
(0 -0 1.897238634e-05)
(0 -0 1.893543107e-05)
(0 -0 1.887621973e-05)
(0 -0 1.879551922e-05)
(0 -0 1.869435102e-05)
(0 -0 1.857380292e-05)
(0 -0 1.843489765e-05)
(0 -0 1.827880609e-05)
(0 -0 1.810683188e-05)
(0 -0 1.792034892e-05)
(0 -0 1.772077958e-05)
(0 -0 1.750958302e-05)
(0 -0 1.728824983e-05)
(0 -0 1.705830158e-05)
(0 -0 1.682129207e-05)
(0 -0 1.657880631e-05)
(0 -0 1.633245645e-05)
(0 -0 1.608387374e-05)
(0 -0 1.583469837e-05)
(0 -0 1.558657015e-05)
(0 -0 1.53411206e-05)
(0 -0 1.509996579e-05)
(0 -0 1.486469798e-05)
(0 -0 1.46368755e-05)
(0 -0 1.44180102e-05)
(0 -0 1.42095545e-05)
(0 -0 1.401288777e-05)
(0 -0 1.382930311e-05)
(0 -0 1.365999245e-05)
(0 -0 1.350603228e-05)
(0 -0 1.181118568e-05)
(0 -0 1.205376592e-05)
(0 -0 1.232118352e-05)
(0 -0 1.259446353e-05)
(0 -0 1.286663481e-05)
(0 -0 1.31336007e-05)
(0 -0 1.339226991e-05)
(0 -0 1.363997088e-05)
(0 -0 1.387427839e-05)
(0 -0 1.409295185e-05)
(0 -0 1.429392982e-05)
(0 -0 1.447536503e-05)
(0 -0 1.463566655e-05)
(0 -0 1.477352577e-05)
(0 -0 1.488792672e-05)
(0 -0 1.497814611e-05)
(0 -0 1.504373382e-05)
(0 -0 1.508448276e-05)
(0 -0 1.510031982e-05)
(0 -0 1.509134105e-05)
(0 -0 1.505786815e-05)
(0 -0 1.50003864e-05)
(0 -0 1.491965415e-05)
(0 -0 1.481656922e-05)
(0 -0 1.469207788e-05)
(0 -0 1.454732924e-05)
(0 -0 1.438363229e-05)
(0 -0 1.420239797e-05)
(0 -0 1.400511363e-05)
(0 -0 1.379332484e-05)
(0 -0 1.356862029e-05)
(0 -0 1.333262153e-05)
(0 -0 1.308697764e-05)
(0 -0 1.283336336e-05)
(0 -0 1.257347856e-05)
(0 -0 1.230904463e-05)
(0 -0 1.204179806e-05)
(0 -0 1.17734819e-05)
(0 -0 1.150583716e-05)
(0 -0 1.124059457e-05)
(0 -0 1.097946573e-05)
(0 -0 1.072413311e-05)
(0 -0 1.047623868e-05)
(0 -0 1.023737317e-05)
(0 -0 1.000906532e-05)
(0 -0 9.792770217e-06)
(0 -0 9.589854403e-06)
(0 -0 9.401579778e-06)
(0 -0 9.229089172e-06)
(0 -0 9.07339469e-06)
(0 -0 8.497510715e-06)
(0 -0 8.754495256e-06)
(0 -0 9.036822667e-06)
(0 -0 9.324352748e-06)
(0 -0 9.609643166e-06)
(0 -0 9.888341844e-06)
(0 -0 1.015721773e-05)
(0 -0 1.041351384e-05)
(0 -0 1.065473535e-05)
(0 -0 1.087857337e-05)
(0 -0 1.108290336e-05)
(0 -0 1.126582861e-05)
(0 -0 1.142572807e-05)
(0 -0 1.156128239e-05)
(0 -0 1.167148332e-05)
(0 -0 1.175561857e-05)
(0 -0 1.181326095e-05)
(0 -0 1.184424751e-05)
(0 -0 1.184863192e-05)
(0 -0 1.182662595e-05)
(0 -0 1.177868668e-05)
(0 -0 1.170539687e-05)
(0 -0 1.160746057e-05)
(0 -0 1.148584604e-05)
(0 -0 1.134174578e-05)
(0 -0 1.117651858e-05)
(0 -0 1.099165139e-05)
(0 -0 1.078873028e-05)
(0 -0 1.056941787e-05)
(0 -0 1.033543469e-05)
(0 -0 1.008854328e-05)
(0 -0 9.830536863e-06)
(0 -0 9.563232244e-06)
(0 -0 9.288466774e-06)
(0 -0 9.008095937e-06)
(0 -0 8.72398878e-06)
(0 -0 8.438019909e-06)
(0 -0 8.152059966e-06)
(0 -0 7.867966286e-06)
(0 -0 7.587573807e-06)
(0 -0 7.31268516e-06)
(0 -0 7.04505942e-06)
(0 -0 6.786400183e-06)
(0 -0 6.538343958e-06)
(0 -0 6.302449142e-06)
(0 -0 6.080184433e-06)
(0 -0 5.872915477e-06)
(0 -0 5.681888115e-06)
(0 -0 5.508213642e-06)
(0 -0 5.352857645e-06)
(0 -0 5.632044252e-06)
(0 -0 5.904784332e-06)
(0 -0 6.203710638e-06)
(0 -0 6.507622417e-06)
(0 -0 6.808534644e-06)
(0 -0 7.10177021e-06)
(0 -0 7.383909927e-06)
(0 -0 7.652073583e-06)
(0 -0 7.903663168e-06)
(0 -0 8.136266652e-06)
(0 -0 8.347659953e-06)
(0 -0 8.535862643e-06)
(0 -0 8.699185345e-06)
(0 -0 8.836263685e-06)
(0 -0 8.946058656e-06)
(0 -0 9.027876111e-06)
(0 -0 9.081322788e-06)
(0 -0 9.106282677e-06)
(0 -0 9.102905912e-06)
(0 -0 9.071467853e-06)
(0 -0 9.012356103e-06)
(0 -0 8.926214268e-06)
(0 -0 8.813940169e-06)
(0 -0 8.676669442e-06)
(0 -0 8.515750783e-06)
(0 -0 8.332706663e-06)
(0 -0 8.129193568e-06)
(0 -0 7.906970967e-06)
(0 -0 7.667877972e-06)
(0 -0 7.413813775e-06)
(0 -0 7.146721242e-06)
(0 -0 6.868574096e-06)
(0 -0 6.58136894e-06)
(0 -0 6.287120401e-06)
(0 -0 5.987856353e-06)
(0 -0 5.685611371e-06)
(0 -0 5.382416627e-06)
(0 -0 5.080287337e-06)
(0 -0 4.781209846e-06)
(0 -0 4.48712975e-06)
(0 -0 4.199941919e-06)
(0 -0 3.9214818e-06)
(0 -0 3.653517116e-06)
(0 -0 3.397737437e-06)
(0 -0 3.155741148e-06)
(0 -0 2.929019447e-06)
(0 -0 2.718941898e-06)
(0 -0 2.526743758e-06)
(0 -0 2.353512668e-06)
(0 -0 2.200172485e-06)
(0 -0 3.144025731e-06)
(0 -0 3.432498415e-06)
(0 -0 3.748672951e-06)
(0 -0 4.07044114e-06)
(0 -0 4.388870518e-06)
(0 -0 4.698739464e-06)
(0 -0 4.996379149e-06)
(0 -0 5.278778393e-06)
(0 -0 5.543233158e-06)
(0 -0 5.787211166e-06)
(0 -0 6.008359398e-06)
(0 -0 6.204582757e-06)
(0 -0 6.374114801e-06)
(0 -0 6.515535619e-06)
(0 -0 6.627773187e-06)
(0 -0 6.710117135e-06)
(0 -0 6.762188509e-06)
(0 -0 6.783890814e-06)
(0 -0 6.775315464e-06)
(0 -0 6.736759118e-06)
(0 -0 6.668746299e-06)
(0 -0 6.572033545e-06)
(0 -0 6.447631987e-06)
(0 -0 6.296810917e-06)
(0 -0 6.121067301e-06)
(0 -0 5.922081526e-06)
(0 -0 5.701677463e-06)
(0 -0 5.461791444e-06)
(0 -0 5.204448059e-06)
(0 -0 4.931738839e-06)
(0 -0 4.645803303e-06)
(0 -0 4.348813992e-06)
(0 -0 4.042966586e-06)
(0 -0 3.7304728e-06)
(0 -0 3.413552086e-06)
(0 -0 3.094420116e-06)
(0 -0 2.775274029e-06)
(0 -0 2.458276518e-06)
(0 -0 2.145540903e-06)
(0 -0 1.839119412e-06)
(0 -0 1.540995737e-06)
(0 -0 1.253080146e-06)
(0 -0 9.772042515e-07)
(0 -0 7.151117178e-07)
(0 -0 4.68443242e-07)
(0 -0 2.387170104e-07)
(0 -0 2.73096105e-08)
(0 -0 -1.645572526e-07)
(0 -0 -3.358277168e-07)
(0 -0 -4.856270469e-07)
(0 -0 9.552127372e-07)
(0 -0 1.268548942e-06)
(0 -0 1.610534277e-06)
(0 -0 1.954845951e-06)
(0 -0 2.293384129e-06)
(0 -0 2.621773796e-06)
(0 -0 2.936710488e-06)
(0 -0 3.235255633e-06)
(0 -0 3.514593193e-06)
(0 -0 3.772009712e-06)
(0 -0 4.004991162e-06)
(0 -0 4.211333141e-06)
(0 -0 4.389200282e-06)
(0 -0 4.537119433e-06)
(0 -0 4.653969312e-06)
(0 -0 4.738967892e-06)
(0 -0 4.791683537e-06)
(0 -0 4.811997368e-06)
(0 -0 4.800051836e-06)
(0 -0 4.756211817e-06)
(0 -0 4.681068292e-06)
(0 -0 4.575464617e-06)
(0 -0 4.440523257e-06)
(0 -0 4.277644098e-06)
(0 -0 4.088471376e-06)
(0 -0 3.874848817e-06)
(0 -0 3.638780759e-06)
(0 -0 3.38240093e-06)
(0 -0 3.107944958e-06)
(0 -0 2.817722776e-06)
(0 -0 2.51409175e-06)
(0 -0 2.199436176e-06)
(0 -0 1.87615422e-06)
(0 -0 1.546649458e-06)
(0 -0 1.213321865e-06)
(0 -0 8.785550292e-07)
(0 -0 5.447000365e-07)
(0 -0 2.140590122e-07)
(0 -0 -1.11129166e-07)
(0 -0 -4.28698926e-07)
(0 -0 -7.365642097e-07)
(0 -0 -1.032723102e-06)
(0 -0 -1.315265476e-06)
(0 -0 -1.582386386e-06)
(0 -0 -1.832403779e-06)
(0 -0 -2.063775972e-06)
(0 -0 -2.275119054e-06)
(0 -0 -2.465224532e-06)
(0 -0 -2.633076187e-06)
(0 -0 -2.777863035e-06)
(0 -0 -9.345959824e-07)
(0 -0 -6.03544191e-07)
(0 -0 -2.432556331e-07)
(0 -0 1.18565716e-07)
(0 -0 4.745740868e-07)
(0 -0 8.215370959e-07)
(0 -0 1.156108957e-06)
(0 -0 1.474101965e-06)
(0 -0 1.771364588e-06)
(0 -0 2.044579022e-06)
(0 -0 2.29128386e-06)
(0 -0 2.509505413e-06)
(0 -0 2.697489062e-06)
(0 -0 2.853683951e-06)
(0 -0 2.976837756e-06)
(0 -0 3.066083065e-06)
(0 -0 3.120956587e-06)
(0 -0 3.141352159e-06)
(0 -0 3.127449926e-06)
(0 -0 3.079668246e-06)
(0 -0 2.998665103e-06)
(0 -0 2.885374087e-06)
(0 -0 2.741034476e-06)
(0 -0 2.567189561e-06)
(0 -0 2.36565277e-06)
(0 -0 2.138459237e-06)
(0 -0 1.887820497e-06)
(0 -0 1.616085982e-06)
(0 -0 1.325707903e-06)
(0 -0 1.01920695e-06)
(0 -0 6.991412035e-07)
(0 -0 3.680831399e-07)
(0 -0 2.860684741e-08)
(0 -0 -3.167181492e-07)
(0 -0 -6.653318053e-07)
(0 -0 -1.014692464e-06)
(0 -0 -1.362291195e-06)
(0 -0 -1.70566921e-06)
(0 -0 -2.042434334e-06)
(0 -0 -2.370274018e-06)
(0 -0 -2.686965435e-06)
(0 -0 -2.990386388e-06)
(0 -0 -3.27852991e-06)
(0 -0 -3.549522128e-06)
(0 -0 -3.801639532e-06)
(0 -0 -4.033322853e-06)
(0 -0 -4.243189897e-06)
(0 -0 -4.430052115e-06)
(0 -0 -4.592934499e-06)
(0 -0 -4.731090696e-06)
(0 -0 -2.558160327e-06)
(0 -0 -2.21512466e-06)
(0 -0 -1.840607399e-06)
(0 -0 -1.461146088e-06)
(0 -0 -1.086115422e-06)
(0 -0 -7.202367345e-07)
(0 -0 -3.67649432e-07)
(0 -0 -3.283296948e-08)
(0 -0 2.802266629e-07)
(0 -0 5.68552244e-07)
(0 -0 8.297867875e-07)
(0 -0 1.061635194e-06)
(0 -0 1.261758775e-06)
(0 -0 1.428063222e-06)
(0 -0 1.55900498e-06)
(0 -0 1.653687256e-06)
(0 -0 1.711762907e-06)
(0 -0 1.733266008e-06)
(0 -0 1.718478414e-06)
(0 -0 1.66788117e-06)
(0 -0 1.582184757e-06)
(0 -0 1.462394613e-06)
(0 -0 1.309858983e-06)
(0 -0 1.126270012e-06)
(0 -0 9.136202775e-07)
(0 -0 6.741389618e-07)
(0 -0 4.102297071e-07)
(0 -0 1.244226883e-07)
(0 -0 -1.806600873e-07)
(0 -0 -5.023306455e-07)
(0 -0 -8.378558645e-07)
(0 -0 -1.184475616e-06)
(0 -0 -1.539417516e-06)
(0 -0 -1.899908745e-06)
(0 -0 -2.263186678e-06)
(0 -0 -2.626511703e-06)
(0 -0 -2.987183857e-06)
(0 -0 -3.342562328e-06)
(0 -0 -3.690083364e-06)
(0 -0 -4.027274936e-06)
(0 -0 -4.351770299e-06)
(0 -0 -4.6613248e-06)
(0 -0 -4.953835465e-06)
(0 -0 -5.227359741e-06)
(0 -0 -5.480130392e-06)
(0 -0 -5.710568486e-06)
(0 -0 -5.91729766e-06)
(0 -0 -6.099160265e-06)
(0 -0 -6.255232282e-06)
(0 -0 -6.384835172e-06)
(0 -0 -3.981538568e-06)
(0 -0 -3.617337721e-06)
(0 -0 -3.219076831e-06)
(0 -0 -2.815224581e-06)
(0 -0 -2.416555974e-06)
(0 -0 -2.029313402e-06)
(0 -0 -1.658042423e-06)
(0 -0 -1.306426134e-06)
(0 -0 -9.774923356e-07)
(0 -0 -6.738955784e-07)
(0 -0 -3.982866848e-07)
(0 -0 -1.534560995e-07)
(0 -0 5.78826283e-08)
(0 -0 2.334769083e-07)
(0 -0 3.717951772e-07)
(0 -0 4.720340624e-07)
(0 -0 5.339391175e-07)
(0 -0 5.575872091e-07)
(0 -0 5.432463449e-07)
(0 -0 4.913524846e-07)
(0 -0 4.025748547e-07)
(0 -0 2.779089322e-07)
(0 -0 1.18738949e-07)
(0 -0 -7.315810665e-08)
(0 -0 -2.956608478e-07)
(0 -0 -5.463764264e-07)
(0 -0 -8.227143947e-07)
(0 -0 -1.121944639e-06)
(0 -0 -1.441237018e-06)
(0 -0 -1.777687169e-06)
(0 -0 -2.128335654e-06)
(0 -0 -2.490186062e-06)
(0 -0 -2.860223575e-06)
(0 -0 -3.235433612e-06)
(0 -0 -3.612820139e-06)
(0 -0 -3.989424555e-06)
(0 -0 -4.362345279e-06)
(0 -0 -4.728756493e-06)
(0 -0 -5.085925007e-06)
(0 -0 -5.431226111e-06)
(0 -0 -5.762160831e-06)
(0 -0 -6.07637462e-06)
(0 -0 -6.37167598e-06)
(0 -0 -6.646053443e-06)
(0 -0 -6.897692564e-06)
(0 -0 -7.12499363e-06)
(0 -0 -7.326588099e-06)
(0 -0 -7.501352057e-06)
(0 -0 -7.648417048e-06)
(0 -0 -7.767182934e-06)
(0 -0 -5.198697122e-06)
(0 -0 -4.815251767e-06)
(0 -0 -4.395836468e-06)
(0 -0 -3.970326932e-06)
(0 -0 -3.549798252e-06)
(0 -0 -3.140673485e-06)
(0 -0 -2.747730753e-06)
(0 -0 -2.375044483e-06)
(0 -0 -2.026257714e-06)
(0 -0 -1.704690075e-06)
(0 -0 -1.413391133e-06)
(0 -0 -1.15513328e-06)
(0 -0 -9.323377267e-07)
(0 -0 -7.469667509e-07)
(0 -0 -6.004416966e-07)
(0 -0 -4.936339543e-07)
(0 -0 -4.269395717e-07)
(0 -0 -4.003987353e-07)
(0 -0 -4.137953567e-07)
(0 -0 -4.666857475e-07)
(0 -0 -5.583542659e-07)
(0 -0 -6.877380027e-07)
(0 -0 -8.533719728e-07)
(0 -0 -1.053384199e-06)
(0 -0 -1.285537322e-06)
(0 -0 -1.547294172e-06)
(0 -0 -1.835884849e-06)
(0 -0 -2.148364604e-06)
(0 -0 -2.481660632e-06)
(0 -0 -2.832610812e-06)
(0 -0 -3.197996255e-06)
(0 -0 -3.574567834e-06)
(0 -0 -3.959067214e-06)
(0 -0 -4.348245052e-06)
(0 -0 -4.738879966e-06)
(0 -0 -5.127799398e-06)
(0 -0 -5.511900459e-06)
(0 -0 -5.888168341e-06)
(0 -0 -6.253693766e-06)
(0 -0 -6.605692339e-06)
(0 -0 -6.941527059e-06)
(0 -0 -7.258729859e-06)
(0 -0 -7.555019136e-06)
(0 -0 -7.828314737e-06)
(0 -0 -8.076756697e-06)
(0 -0 -8.298727686e-06)
(0 -0 -8.492871568e-06)
(0 -0 -8.658104336e-06)
(0 -0 -8.793623496e-06)
(0 -0 -8.898922963e-06)
(0 -0 -6.225400794e-06)
(0 -0 -5.822689792e-06)
(0 -0 -5.382190822e-06)
(0 -0 -4.935205337e-06)
(0 -0 -4.493248927e-06)
(0 -0 -4.062959644e-06)
(0 -0 -3.649289259e-06)
(0 -0 -3.256494527e-06)
(0 -0 -2.888440184e-06)
(0 -0 -2.548699011e-06)
(0 -0 -2.240553611e-06)
(0 -0 -1.966945791e-06)
(0 -0 -1.730414519e-06)
(0 -0 -1.533043433e-06)
(0 -0 -1.376416847e-06)
(0 -0 -1.261594494e-06)
(0 -0 -1.189129099e-06)
(0 -0 -1.159134638e-06)
(0 -0 -1.17137243e-06)
(0 -0 -1.225300653e-06)
(0 -0 -1.320060751e-06)
(0 -0 -1.454426384e-06)
(0 -0 -1.626763077e-06)
(0 -0 -1.835031113e-06)
(0 -0 -2.076828886e-06)
(0 -0 -2.349455345e-06)
(0 -0 -2.649968136e-06)
(0 -0 -2.975231954e-06)
(0 -0 -3.321961428e-06)
(0 -0 -3.686763504e-06)
(0 -0 -4.066178359e-06)
(0 -0 -4.456713162e-06)
(0 -0 -4.854866934e-06)
(0 -0 -5.257150547e-06)
(0 -0 -5.660107444e-06)
(0 -0 -6.060337026e-06)
(0 -0 -6.454517975e-06)
(0 -0 -6.83942995e-06)
(0 -0 -7.211974634e-06)
(0 -0 -7.569197854e-06)
(0 -0 -7.90831248e-06)
(0 -0 -8.226721682e-06)
(0 -0 -8.522041752e-06)
(0 -0 -8.792123396e-06)
(0 -0 -9.03507069e-06)
(0 -0 -9.249257471e-06)
(0 -0 -9.43334267e-06)
(0 -0 -9.586284147e-06)
(0 -0 -9.707355454e-06)
(0 -0 -9.796170569e-06)
(0 -0 -7.073657173e-06)
(0 -0 -6.651761373e-06)
(0 -0 -6.190220722e-06)
(0 -0 -5.721750637e-06)
(0 -0 -5.258356754e-06)
(0 -0 -4.806946268e-06)
(0 -0 -4.372694274e-06)
(0 -0 -3.96005531e-06)
(0 -0 -3.57306708e-06)
(0 -0 -3.215467871e-06)
(0 -0 -2.890714624e-06)
(0 -0 -2.60192788e-06)
(0 -0 -2.35181119e-06)
(0 -0 -2.142585194e-06)
(0 -0 -1.975945255e-06)
(0 -0 -1.853044054e-06)
(0 -0 -1.774511753e-06)
(0 -0 -1.740519252e-06)
(0 -0 -1.750854193e-06)
(0 -0 -1.804961944e-06)
(0 -0 -1.901928238e-06)
(0 -0 -2.040428707e-06)
(0 -0 -2.218694669e-06)
(0 -0 -2.43452557e-06)
(0 -0 -2.685341884e-06)
(0 -0 -2.968252135e-06)
(0 -0 -3.280112708e-06)
(0 -0 -3.617575562e-06)
(0 -0 -3.977131275e-06)
(0 -0 -4.355152704e-06)
(0 -0 -4.747937464e-06)
(0 -0 -5.151743598e-06)
(0 -0 -5.56281722e-06)
(0 -0 -5.97741583e-06)
(0 -0 -6.391831761e-06)
(0 -0 -6.802417541e-06)
(0 -0 -7.205612232e-06)
(0 -0 -7.597968377e-06)
(0 -0 -7.976179701e-06)
(0 -0 -8.337107648e-06)
(0 -0 -8.677804122e-06)
(0 -0 -8.995533479e-06)
(0 -0 -9.287799806e-06)
(0 -0 -9.552378955e-06)
(0 -0 -9.787341673e-06)
(0 -0 -9.991065965e-06)
(0 -0 -1.016224107e-05)
(0 -0 -1.02998658e-05)
(0 -0 -1.040327479e-05)
(0 -0 -1.0472217e-05)
(0 -0 -7.7528403e-06)
(0 -0 -7.312030342e-06)
(0 -0 -6.829691156e-06)
(0 -0 -6.339934093e-06)
(0 -0 -5.855256084e-06)
(0 -0 -5.382839457e-06)
(0 -0 -4.928093802e-06)
(0 -0 -4.495688434e-06)
(0 -0 -4.089846873e-06)
(0 -0 -3.714474398e-06)
(0 -0 -3.373197325e-06)
(0 -0 -3.069313765e-06)
(0 -0 -2.805697211e-06)
(0 -0 -2.584707378e-06)
(0 -0 -2.408137012e-06)
(0 -0 -2.27719936e-06)
(0 -0 -2.192562289e-06)
(0 -0 -2.154423502e-06)
(0 -0 -2.162587827e-06)
(0 -0 -2.216498975e-06)
(0 -0 -2.315211696e-06)
(0 -0 -2.457334727e-06)
(0 -0 -2.640996345e-06)
(0 -0 -2.863860094e-06)
(0 -0 -3.123182751e-06)
(0 -0 -3.415884981e-06)
(0 -0 -3.738614989e-06)
(0 -0 -4.087801309e-06)
(0 -0 -4.459700236e-06)
(0 -0 -4.850441215e-06)
(0 -0 -5.256068456e-06)
(0 -0 -5.672576815e-06)
(0 -0 -6.095942978e-06)
(0 -0 -6.522153893e-06)
(0 -0 -6.947233929e-06)
(0 -0 -7.367271903e-06)
(0 -0 -7.778450172e-06)
(0 -0 -8.177076364e-06)
(0 -0 -8.55961601e-06)
(0 -0 -8.922722868e-06)
(0 -0 -9.263266477e-06)
(0 -0 -9.578359545e-06)
(0 -0 -9.865389942e-06)
(0 -0 -1.01220569e-05)
(0 -0 -1.034639607e-05)
(0 -0 -1.053681629e-05)
(0 -0 -1.069205975e-05)
(0 -0 -1.081122102e-05)
(0 -0 -1.089378359e-05)
(0 -0 -1.093950387e-05)
(0 -0 -8.270661134e-06)
(0 -0 -7.811336194e-06)
(0 -0 -7.308601281e-06)
(0 -0 -6.797939481e-06)
(0 -0 -6.292330305e-06)
(0 -0 -5.799226167e-06)