/*--------------------------------*- C++ -*----------------------------------*\
| =========                 |                                                 |
| \\      /  F ield         | foam-extend: Open Source CFD                    |
|  \\    /   O peration     | Version:     4.1                                |
|   \\  /    A nd           | Web:         http://www.foam-extend.org         |
|    \\/     M anipulation  |                                                 |
\*---------------------------------------------------------------------------*/
FoamFile
{
    version     2.0;
    format      ascii;
    class       volScalarField;
    location    "110000";
    object      p;
}
// * * * * * * * * * * * * * * * * * * * * * * * * * * * * * * * * * * * * * //

dimensions      [0 2 -2 0 0 0 0];

internalField   nonuniform List<scalar> 
15920
(
1.932701776e-08
1.650205138e-08
1.431078286e-08
1.319242639e-08
1.23944503e-08
1.157075542e-08
1.076871969e-08
1.006615726e-08
9.466407419e-09
8.947837549e-09
8.499514087e-09
8.118086435e-09
7.798618771e-09
7.53314557e-09
7.312763039e-09
7.128953356e-09
6.973869746e-09
6.840420525e-09
6.722411205e-09
6.614639444e-09
6.512884806e-09
6.413827509e-09
6.314939254e-09
6.214365843e-09
6.110810954e-09
6.003429683e-09
5.891732424e-09
5.775501641e-09
5.654723217e-09
5.529531661e-09
5.400167389e-09
5.266944203e-09
5.13022524e-09
4.990405699e-09
4.847900839e-09
4.703138076e-09
4.556552546e-09
4.408585569e-09
4.259684994e-09
4.110306175e-09
3.960912633e-09
3.811976166e-09
3.663976806e-09
3.517402888e-09
3.37275114e-09
3.230526492e-09
3.091241215e-09
2.955413029e-09
2.823562114e-09
2.696207379e-09
1.402511147e-08
1.367465617e-08
1.310701135e-08
1.257878956e-08
1.206778676e-08
1.149294158e-08
1.08797491e-08
1.028360457e-08
9.730274335e-09
9.225926768e-09
8.774466962e-09
8.37949177e-09
8.040725658e-09
7.753618111e-09
7.511247437e-09
7.306098535e-09
7.130865915e-09
6.978765606e-09
6.843749817e-09
6.72065153e-09
6.605217345e-09
6.494053193e-09
6.384533169e-09
6.274685215e-09
6.163071716e-09
6.048705764e-09
5.930963451e-09
5.809502818e-09
5.684196335e-09
5.555076663e-09
5.422293962e-09
5.286083053e-09
5.146738823e-09
5.004598335e-09
4.860028365e-09
4.713417196e-09
4.565169663e-09
4.415704521e-09
4.265453157e-09
4.114858641e-09
3.964374595e-09
3.81446431e-09
3.665600709e-09
3.518266885e-09
3.372956409e-09
3.23017289e-09
3.090428724e-09
2.954242734e-09
2.82213666e-09
2.694630581e-09
1.350160929e-08
1.333858241e-08
1.289672992e-08
1.233721204e-08
1.179704804e-08
1.127919344e-08
1.076408179e-08
1.026323545e-08
9.793896351e-09
9.362531794e-09
8.969576688e-09
8.615115254e-09
8.298808045e-09
8.018586669e-09
7.771019856e-09
7.552103031e-09
7.357683076e-09
7.183601514e-09
7.025823677e-09
6.880593143e-09
6.744549093e-09
6.61478143e-09
6.488839606e-09
6.36473445e-09
6.240920106e-09
6.116217936e-09
5.989760414e-09
5.860946988e-09
5.729401015e-09
5.594928344e-09
5.457480689e-09
5.317124896e-09
5.174017801e-09
5.028386066e-09
4.880510506e-09
4.730714359e-09
4.579354806e-09
4.426817074e-09
4.273510386e-09
4.119864996e-09
3.966329836e-09
3.813370832e-09
3.661469929e-09
3.511124505e-09
3.362846425e-09
3.217160239e-09
3.074600672e-09
2.935708917e-09
2.801029131e-09
2.671104022e-09
1.251078438e-08
1.236798593e-08
1.208405759e-08
1.172386168e-08
1.134763064e-08
1.096697973e-08
1.057566588e-08
1.018067641e-08
9.796571897e-09
9.432697801e-09
9.092393654e-09
8.777089166e-09
8.487717428e-09
8.224128907e-09
7.984920252e-09
7.767849494e-09
7.570246793e-09
7.389247419e-09
7.22194132e-09
7.065512569e-09
6.917355843e-09
6.775148881e-09
6.636885703e-09
6.500885287e-09
6.365777834e-09
6.230472364e-09
6.094127122e-09
5.95612254e-09
5.816032048e-09
5.673592161e-09
5.528675112e-09
5.381265323e-09
5.231439627e-09
5.079350903e-09
4.925214885e-09
4.769299915e-09
4.611919059e-09
4.453424186e-09
4.294201612e-09
4.134668805e-09
3.975271735e-09
3.816482588e-09
3.658797642e-09
3.50273526e-09
3.348833648e-09
3.197647875e-09
3.049746161e-09
2.905706332e-09
2.766110761e-09
2.631541101e-09
1.187673556e-08
1.180587388e-08
1.163422092e-08
1.138303585e-08
1.109046033e-08
1.07780115e-08
1.045242628e-08
1.012029308e-08
9.791266797e-09
9.473298632e-09
9.170663397e-09
8.885489488e-09
8.619028023e-09
8.371690131e-09
8.142894591e-09
7.931276489e-09
7.735022169e-09
7.552101269e-09
7.38039969e-09
7.217820695e-09
7.062372015e-09
6.912228248e-09
6.765765519e-09
6.621575608e-09
6.478466914e-09
6.335456093e-09
6.19175398e-09
6.046748973e-09
5.899988666e-09
5.7511609e-09
5.60007592e-09
5.446650382e-09
5.29089336e-09
5.132894374e-09
4.972813354e-09
4.810872296e-09
4.647348519e-09
4.482569203e-09
4.316907005e-09
4.15077655e-09
3.984631558e-09
3.818962236e-09
3.654292518e-09
3.491177018e-09
3.330196968e-09
3.171955784e-09
3.017075338e-09
2.866190848e-09
2.719944735e-09
2.578980512e-09
1.139484774e-08
1.134466161e-08
1.121908364e-08
1.102813812e-08
1.079813757e-08
1.054712145e-08
1.028244806e-08
1.000898197e-08
9.733093784e-09
9.461038588e-09
9.197118001e-09
8.943847039e-09
8.702746053e-09
8.474628223e-09
8.259578295e-09
8.057035768e-09
7.865994264e-09
7.685178965e-09
7.513162192e-09
7.348448681e-09
7.189550497e-09
7.03504813e-09
6.883632544e-09
6.734130328e-09
6.585516695e-09
6.436919191e-09
6.287614416e-09
6.137020486e-09
5.984687456e-09
5.830286645e-09
5.673599492e-09
5.51450687e-09
5.352979392e-09
5.189068876e-09
5.022900919e-09
4.854668709e-09
4.684627675e-09
4.513090786e-09
4.340424946e-09
4.167048143e-09
3.99342715e-09
3.820075139e-09
3.647547668e-09
3.476439449e-09
3.30738117e-09
3.141032313e-09
2.978076359e-09
2.819215256e-09
2.665163059e-09
2.516638956e-09
1.101753255e-08
1.097960763e-08
1.088583519e-08
1.07414638e-08
1.056276056e-08
1.036196356e-08
1.014531841e-08
9.917350737e-09
9.683245512e-09
9.448158581e-09
9.216047818e-09
8.989530145e-09
8.770313942e-09
8.559476447e-09
8.357510848e-09
8.16436863e-09
7.979577317e-09
7.80237391e-09
7.631808158e-09
7.466819863e-09
7.306304117e-09
7.149166251e-09
6.994363373e-09
6.840932523e-09
6.688008246e-09
6.534832201e-09
6.380756789e-09
6.22524462e-09
6.06786528e-09
5.908290303e-09
5.746287211e-09
5.581713549e-09
5.414511394e-09
5.244702492e-09
5.072383496e-09
4.897722417e-09
4.720954469e-09
4.542378908e-09
4.362357013e-09
4.181310077e-09
3.999717501e-09
3.818117388e-09
3.637103227e-09
3.457312798e-09
3.279426301e-09
3.104162129e-09
2.932273559e-09
2.764538e-09
2.601750736e-09
2.444719456e-09
1.072049567e-08
1.069137236e-08
1.061913871e-08
1.050639783e-08
1.036372826e-08
1.019970986e-08
1.00195156e-08
9.827220366e-09
9.627072142e-09
9.423169167e-09
9.218836496e-09
9.016484569e-09
8.817808896e-09
8.623966768e-09
8.435636022e-09
8.253051413e-09
8.076079909e-09
7.904315254e-09
7.737160222e-09
7.573890853e-09
7.413709832e-09
7.255792297e-09
7.099322932e-09
6.943523757e-09
6.787673898e-09
6.631123023e-09
6.473299668e-09
6.313715527e-09
6.151966916e-09
5.987734271e-09
5.820780772e-09
5.65095065e-09
5.478166792e-09
5.302428868e-09
5.123811039e-09
4.942466202e-09
4.758615222e-09
4.572549004e-09
4.384629398e-09
4.195287536e-09
4.005019309e-09
3.814390923e-09
3.624034752e-09
3.434633844e-09
3.246942302e-09
3.061739862e-09
2.879857019e-09
2.702156717e-09
2.52952381e-09
2.362864945e-09
1.048522752e-08
1.04620472e-08
1.040445385e-08
1.031388353e-08
1.019779666e-08
1.006233399e-08
9.911410315e-09
9.74828508e-09
9.576328926e-09
9.398794257e-09
9.21843148e-09
9.037374121e-09
8.857220004e-09
8.679126583e-09
8.50385738e-09
8.33181403e-09
8.163086797e-09
7.99751906e-09
7.83476876e-09
7.674359943e-09
7.515726603e-09
7.358251088e-09
7.2012968e-09
7.044234609e-09
6.886463228e-09
6.727424393e-09
6.566613725e-09
6.403588087e-09
6.237970718e-09
6.069453174e-09
5.897797437e-09
5.722840057e-09
5.544491311e-09
5.362734944e-09
5.177613249e-09
4.989276743e-09
4.797933228e-09
4.60386754e-09
4.407443569e-09
4.209104589e-09
4.009375493e-09
3.8088536e-09
3.608208105e-09
3.408187837e-09
3.209590244e-09
3.013294113e-09
2.820218577e-09
2.63132033e-09
2.447572275e-09
2.26991003e-09
1.029900921e-08
1.028009927e-08
1.023311976e-08
1.015891715e-08
1.006297216e-08
9.949707452e-09
9.821963384e-09
9.682253158e-09
9.533263604e-09
9.377618456e-09
9.217588621e-09
9.055008604e-09
8.891316105e-09
8.727601543e-09
8.564635959e-09
8.40289456e-09
8.242591624e-09
8.08372494e-09
7.926120686e-09
7.769473677e-09
7.613382869e-09
7.457383112e-09
7.300973084e-09
7.143639088e-09
6.984874695e-09
6.824195998e-09
6.661152505e-09
6.495335642e-09
6.326392539e-09
6.154023422e-09
5.977983347e-09
5.798099824e-09
5.614267291e-09
5.426450413e-09
5.234701629e-09
5.039119403e-09
4.839904524e-09
4.637341564e-09
4.431799349e-09
4.223734842e-09
4.013694478e-09
3.802310903e-09
3.590302103e-09
3.378475901e-09
3.167722439e-09
2.959006173e-09
2.753354519e-09
2.551854083e-09
2.355649756e-09
2.165968826e-09
1.015277424e-08
1.013705763e-08
1.009800745e-08
1.003611971e-08
9.95555703e-09
9.85958279e-09
9.75025843e-09
9.629498475e-09
9.499429571e-09
9.362157608e-09
9.219532385e-09
9.073089765e-09
8.924076986e-09
8.773476364e-09
8.622016381e-09
8.470185419e-09
8.318255513e-09
8.166313075e-09
8.01429077e-09
7.861997742e-09
7.709147517e-09
7.555383978e-09
7.400304851e-09
7.243481267e-09
7.084475555e-09
6.922860464e-09
6.758227067e-09
6.590177263e-09
6.41838082e-09
6.242536681e-09
6.062400657e-09
5.877777279e-09
5.688537392e-09
5.494623724e-09
5.296056196e-09
5.092929246e-09
4.885426079e-09
4.673821666e-09
4.458485859e-09
4.239886853e-09
4.018594044e-09
3.795279807e-09
3.570720568e-09
3.345794418e-09
3.121475954e-09
2.898831839e-09
2.67901023e-09
2.463228151e-09
2.25275684e-09
2.048896613e-09
1.00397515e-08
1.00264767e-08
9.993489605e-09
9.94107429e-09
9.872489708e-09
9.79020397e-09
9.695714088e-09
9.59045635e-09
9.47609339e-09
9.354303067e-09
9.22658091e-09
9.094195419e-09
8.9582054e-09
8.819469688e-09
8.678647248e-09
8.536202788e-09
8.392422041e-09
8.247432818e-09
8.101227072e-09
7.953683525e-09
7.804588196e-09
7.653654961e-09
7.500549388e-09
7.344902432e-09
7.186312135e-09
7.024388442e-09
6.858741864e-09
6.689014571e-09
6.514843249e-09
6.335919407e-09
6.151979292e-09
5.962808383e-09
5.768250634e-09
5.568217349e-09
5.362696116e-09
5.15175688e-09
4.935560349e-09
4.71436649e-09
4.488540517e-09
4.258558179e-09
4.025011182e-09
3.788611529e-09
3.550193338e-09
3.310711666e-09
3.07123919e-09
2.83296007e-09
2.597159165e-09
2.365207911e-09
2.138546715e-09
1.918663075e-09
9.95476505e-09
9.943400433e-09
9.915157232e-09
9.870186941e-09
9.811102051e-09
9.739806092e-09
9.657386118e-09
9.564909934e-09
9.463670359e-09
9.35499984e-09
9.240101111e-09
9.1200099e-09
8.99560779e-09
8.867625419e-09
8.736636921e-09
8.603059799e-09
8.467163112e-09
8.329081343e-09
8.18882888e-09
8.046321363e-09
7.901386757e-09
7.753771901e-09
7.603182478e-09
7.449282561e-09
7.29171275e-09
7.130078182e-09
6.963992539e-09
6.793082108e-09
6.616985757e-09
6.435370571e-09
6.247940518e-09
6.054445463e-09
5.854689394e-09
5.648540987e-09
5.435945314e-09
5.216933925e-09
4.991634731e-09
4.760282517e-09
4.523228604e-09
4.280949505e-09
4.034054928e-09
3.783294571e-09
3.529562523e-09
3.273898075e-09
3.017482689e-09
2.761633628e-09
2.507793569e-09
2.257515418e-09
2.012442609e-09
1.774285641e-09
9.893771336e-09
9.883933492e-09
9.859478752e-09
9.820473477e-09
9.769053485e-09
9.706712339e-09
9.63423936e-09
9.552423458e-09
9.462266556e-09
9.364822525e-09
9.261051294e-09
9.151788035e-09
9.037753538e-09
8.919554067e-09
8.797672634e-09
8.672467347e-09
8.544174523e-09
8.412911936e-09
8.278683674e-09
8.141420065e-09
8.000964362e-09
7.857095597e-09
7.709520807e-09
7.557905671e-09
7.401889504e-09
7.241087605e-09
7.075101579e-09
6.90353307e-09
6.725993455e-09
6.542112216e-09
6.351547442e-09
6.153996655e-09
5.949208172e-09
5.73699369e-09
5.517241349e-09
5.289928449e-09
5.055134269e-09
4.813053641e-09
4.56401065e-09
4.308471507e-09
4.047056046e-09
3.780547416e-09
3.50989923e-09
3.236239011e-09
2.960867256e-09
2.685252103e-09
2.411018725e-09
2.139932144e-09
1.873873883e-09
1.614814825e-09
9.853544202e-09
9.844954194e-09
9.823584447e-09
9.789446658e-09
9.744318126e-09
9.689389853e-09
9.625233583e-09
9.552426852e-09
9.471742636e-09
9.384010454e-09
9.289989826e-09
9.190345601e-09
9.085657777e-09
8.976418074e-09
8.863017956e-09
8.74574751e-09
8.624798725e-09
8.500256694e-09
8.37212492e-09
8.24030748e-09
8.10463917e-09
7.964891477e-09
7.820774557e-09
7.67194822e-09
7.518036709e-09
7.358635277e-09
7.193317641e-09
7.021647805e-09
6.843190432e-09
6.657520221e-09
6.464232781e-09
6.262957098e-09
6.053368717e-09
5.835203526e-09
5.608272654e-09
5.372478325e-09
5.127830444e-09
4.874464125e-09
4.612657845e-09
4.342851146e-09
4.065660677e-09
3.781893982e-09
3.492560581e-09
3.198879218e-09
2.902279765e-09
2.604399097e-09
2.307070839e-09
2.012307203e-09
1.722271296e-09
1.439242849e-09
9.831457354e-09
9.823903783e-09
9.805097249e-09
9.775013042e-09
9.735146592e-09
9.686459553e-09
9.62936469e-09
9.564280706e-09
9.491801259e-09
9.41257669e-09
9.327201368e-09
9.236196568e-09
9.140019636e-09
9.039059337e-09
8.933626822e-09
8.823943902e-09
8.710139159e-09
8.592264229e-09
8.470288912e-09
8.344099006e-09
8.213509441e-09
8.078271499e-09
7.938076818e-09
7.792564196e-09
7.641327705e-09
7.483925236e-09
7.319886884e-09
7.148723651e-09
6.969937122e-09
6.783029943e-09
6.587517507e-09
6.382941021e-09
6.168881605e-09
5.944975768e-09
5.710932782e-09
5.466553986e-09
5.21175372e-09
4.946581593e-09
4.671245688e-09
4.386135783e-09
4.091845263e-09
3.789190651e-09
3.479228299e-09
3.163267352e-09
2.842876208e-09
2.519880158e-09
2.196350678e-09
1.874586479e-09
1.557083225e-09
1.246491696e-09
9.825397837e-09
9.818683153e-09
9.802027086e-09
9.775378349e-09
9.73999508e-09
9.696657636e-09
9.645660362e-09
9.587302189e-09
9.522036842e-09
9.45036788e-09
9.372759931e-09
9.289616912e-09
9.201288614e-09
9.108071096e-09
9.010195623e-09
8.907817585e-09
8.801014876e-09
8.689793371e-09
8.574083882e-09
8.453742518e-09
8.328555738e-09
8.198244212e-09
8.062467265e-09
7.920827918e-09
7.772878556e-09
7.618127812e-09
7.456047416e-09
7.286079772e-09
7.107647176e-09
6.920162393e-09
6.7230405e-09
6.51571226e-09
6.297639273e-09
6.068331294e-09
5.827366222e-09
5.57441309e-09
5.309257826e-09
5.031830953e-09
4.742236628e-09
4.440782566e-09
4.128009809e-09
3.804720462e-09
3.472001995e-09
3.131247344e-09
2.784168266e-09
2.432797872e-09
2.079480453e-09
1.726849914e-09
1.377795695e-09
1.035413788e-09
9.833426686e-09
9.827449754e-09
9.812647202e-09
9.788960052e-09
9.757461766e-09
9.718791512e-09
9.673154927e-09
9.620758825e-09
9.561945236e-09
9.497102288e-09
9.426584401e-09
9.350696518e-09
9.269700011e-09
9.183810686e-09
9.093188332e-09
8.997928324e-09
8.898058607e-09
8.793537891e-09
8.684255492e-09
8.570030585e-09
8.450613182e-09
8.325686246e-09
8.194868631e-09
8.057718298e-09
7.913735912e-09
7.76236922e-09
7.603018425e-09
7.435042934e-09
7.257769717e-09
7.070503139e-09
6.872536373e-09
6.663164885e-09
6.441702546e-09
6.207500821e-09
5.959971486e-09
5.698613295e-09
5.423042663e-09
5.133027632e-09
4.82852409e-09
4.509713881e-09
4.177044509e-09
3.831268415e-09
3.473478576e-09
3.105138038e-09
2.72810182e-09
2.344627237e-09
1.957368184e-09
1.569352545e-09
1.183942281e-09
8.047734025e-10
9.853965201e-09
9.848658979e-09
9.835501957e-09
9.81442966e-09
9.78636898e-09
9.751847473e-09
9.711002774e-09
9.663972803e-09
9.611014638e-09
9.552425162e-09
9.488470553e-09
9.419374106e-09
9.345322331e-09
9.266462011e-09
9.182890853e-09
9.094649609e-09
9.001717401e-09
8.904008611e-09
8.801370944e-09
8.693583642e-09
8.580356751e-09
8.461331421e-09
8.336080742e-09
8.204110802e-09
8.064862111e-09
7.917711954e-09
7.761978133e-09
7.596924236e-09
7.421766477e-09
7.235682163e-09
7.037820175e-09
6.827314162e-09
6.60329923e-09
6.364932765e-09
6.111419759e-09
5.842042967e-09
5.556198377e-09
5.253436081e-09
4.933505594e-09
4.59640468e-09
4.242431261e-09
3.872237049e-09
3.486878809e-09
3.087862681e-09
2.677178936e-09
2.257323369e-09
1.831299139e-09
1.402595479e-09
9.751424986e-10
5.532380587e-10
9.885656499e-09
9.880951029e-09
9.869269828e-09
9.85054376e-09
9.82557579e-09
9.794805164e-09
9.758320378e-09
9.716207927e-09
9.668657765e-09
9.61589329e-09
9.55810981e-09
9.495464548e-09
9.428082131e-09
9.356051848e-09
9.27941875e-09
9.198175641e-09
9.112257625e-09
9.021538027e-09
8.925824939e-09
8.824858308e-09
8.718307769e-09
8.605771068e-09
8.486772659e-09
8.360762525e-09
8.227115547e-09
8.085131881e-09
7.934038585e-09
7.772992571e-09
7.601085127e-09
7.417348425e-09
7.220764597e-09
7.010278034e-09
6.784811816e-09
6.543289269e-09
6.284661358e-09
6.007940235e-09
5.712239457e-09
5.396821917e-09
5.061155757e-09
4.70497702e-09
4.328357496e-09
3.931776146e-09
3.516190552e-09
3.083102531e-09
2.634613199e-09
2.173462794e-09
1.703046379e-09
1.227396673e-09
7.511317606e-10
2.793652568e-10
9.927245666e-09
9.923082527e-09
9.912743601e-09
9.896159083e-09
9.874024267e-09
9.846706134e-09
9.814257109e-09
9.776725352e-09
9.734248654e-09
9.686992622e-09
9.63509652e-09
9.57866481e-09
9.51777226e-09
9.45246129e-09
9.382733433e-09
9.308541188e-09
9.229781962e-09
9.146293054e-09
9.057847135e-09
8.964148133e-09
8.864827494e-09
8.759440609e-09
8.647463296e-09
8.528288487e-09
8.401223471e-09
8.265487874e-09
8.120212515e-09
7.964439299e-09
7.797122689e-09
7.617133512e-09
7.423265773e-09
7.214247102e-09
6.988753759e-09
6.745431478e-09
6.48292356e-09
6.199907161e-09
5.895138439e-09
5.567508e-09
5.216108124e-09
4.840311329e-09
4.439858044e-09
4.014951259e-09
3.566355338e-09
3.095492155e-09
2.604526302e-09
2.096432803e-09
1.575036479e-09
1.045007541e-09
5.118047361e-10
-1.843681264e-11
9.97759163e-09
9.973929839e-09
9.964835641e-09
9.950241568e-09
9.930746871e-09
9.906657474e-09
9.87800034e-09
9.844797122e-09
9.80714636e-09
9.765168893e-09
9.718960544e-09
9.668585093e-09
9.614078788e-09
9.55544756e-09
9.492658698e-09
9.425632572e-09
9.354236136e-09
9.278277263e-09
9.197499291e-09
9.111575603e-09
9.020104152e-09
8.922601933e-09
8.818499479e-09
8.707135453e-09
8.58775139e-09
8.459486643e-09
8.321373811e-09
8.172335034e-09
8.011179747e-09
7.836604687e-09
7.647196964e-09
7.441441131e-09
7.217731296e-09
6.974389551e-09
6.709692707e-09
6.421909485e-09
6.109349807e-09
5.770427937e-09
5.403741528e-09
5.008167584e-09
4.582973543e-09
4.127941305e-09
3.643502387e-09
3.13087781e-09
2.592210033e-09
2.030674157e-09
1.450554187e-09
8.572633117e-10
2.572901681e-10
-3.419374532e-10
1.003563962e-08
1.003244933e-08
1.002452601e-08
1.001180664e-08
9.994804608e-09
9.973774832e-09
9.948727823e-09
9.919668059e-09
9.886665025e-09
9.849805647e-09
9.809153393e-09
9.764742322e-09
9.716580687e-09
9.664647863e-09
9.608886112e-09
9.549192388e-09
9.485411591e-09
9.417330386e-09
9.344670745e-09
9.267083099e-09
9.1841392e-09
9.095324815e-09
9.000032262e-09
8.897552662e-09
8.787067709e-09
8.667641071e-09
8.53820985e-09
8.397576682e-09
8.244402938e-09
8.077203598e-09
7.894344739e-09
7.694045066e-09
7.474382871e-09
7.23330983e-09
6.968673865e-09
6.678254425e-09
6.359813463e-09
6.011164534e-09
5.630262677e-09
5.215318235e-09
4.764935467e-09
4.278274073e-09
3.755231816e-09
3.196643264e-09
2.604479868e-09
1.982030658e-09
1.334041792e-09
6.667851437e-10
-1.197756112e-11
-6.931571202e-10
1.01003982e-08
1.0097657e-08
1.009084828e-08
1.007991562e-08
1.006529498e-08
1.004719824e-08
1.002562645e-08
1.000057454e-08
9.972091844e-09
9.940241074e-09
9.905063359e-09
9.866573018e-09
9.82476009e-09
9.779586854e-09
9.730979841e-09
9.67882192e-09
9.622945424e-09
9.563125353e-09
9.499071898e-09
9.430422272e-09
9.356732132e-09
9.277466601e-09
9.191990695e-09
9.099558846e-09
8.999303388e-09
8.890222157e-09
8.771165565e-09
8.640823651e-09
8.497713529e-09
8.340167709e-09
8.166324184e-09
7.974119845e-09
7.76128907e-09
7.525369484e-09
7.263717467e-09
6.973537444e-09
6.651930029e-09
6.295962997e-09
5.902768851e-09
5.469674637e-09
4.994369865e-09
4.47511389e-09
3.910980707e-09
3.302136842e-09
2.650137639e-09
1.958214475e-09
1.231520497e-09
4.772917845e-10
-2.951341828e-10
-1.074495639e-09
1.017092345e-08
1.016861407e-08
1.016287643e-08
1.015366256e-08
1.014133781e-08
1.012607763e-08
1.010787953e-08
1.008673548e-08
1.006268233e-08
1.003576711e-08
1.000601751e-08
9.973437146e-09
9.938006945e-09
9.899681324e-09
9.858380666e-09
9.813983717e-09
9.766320593e-09
9.71516534e-09
9.660227566e-09
9.60114326e-09
9.537464957e-09
9.468651071e-09
9.394053988e-09
9.312906668e-09
9.224307772e-09
9.127205377e-09
9.020379286e-09
8.902422103e-09
8.771719556e-09
8.626430682e-09
8.464468642e-09
8.28348326e-09
8.080847348e-09
7.853649789e-09
7.598698621e-09
7.312538292e-09
6.99148734e-09
6.631703428e-09
6.229282282e-09
5.780399195e-09
5.281504524e-09
4.729581168e-09
4.122465428e-09
3.459229191e-09
2.740611987e-09
1.969471357e-09
1.151203763e-09
2.940709601e-10
-5.906601417e-10
-1.488865604e-09
1.024630735e-08
1.024441577e-08
1.023971432e-08
1.023216506e-08
1.022206841e-08
1.020956883e-08
1.019466532e-08
1.017735248e-08
1.015766143e-08
1.013563105e-08
1.011128358e-08
1.008462017e-08
1.005562121e-08
1.002424241e-08
9.990407752e-09
9.954002298e-09
9.914864942e-09
9.872780527e-09
9.827470886e-09
9.778584915e-09
9.725687592e-09
9.668247567e-09
9.605622943e-09
9.537045131e-09
9.461600715e-09
9.378211147e-09
9.285609931e-09
9.182317107e-09
9.066611378e-09
8.936500525e-09
8.789690666e-09
8.623555002e-09
8.4351038e-09
8.220959035e-09
7.977337919e-09
7.700049603e-09
7.384511615e-09
7.025796218e-09
6.618718337e-09
6.157978187e-09
5.638375863e-09
5.055115965e-09
4.40421356e-09
3.683007671e-09
2.890781044e-09
2.029458304e-09
1.104317724e-09
1.246121277e-10
-8.960532867e-10
-1.939767945e-09
1.032567022e-08
1.032418428e-08
1.03204895e-08
1.031455928e-08
1.030663377e-08
1.029683099e-08
1.028515562e-08
1.027160982e-08
1.025622485e-08
1.02390381e-08
1.022007348e-08
1.019933723e-08
1.017681743e-08
1.01524801e-08
1.01262627e-08
1.009806716e-08
1.006775263e-08
1.00351274e-08
9.999939666e-09
9.96186709e-09
9.920504727e-09
9.875351055e-09
9.825791876e-09
9.771081855e-09
9.710323328e-09
9.642441839e-09
9.566158013e-09
9.479955346e-09
9.382043637e-09
9.270318196e-09
9.142315154e-09
8.995163372e-09
8.825533998e-09
8.629590431e-09
8.402943104e-09
8.140613827e-09
7.837016614e-09
7.485967429e-09
7.080740498e-09
6.614190641e-09
6.078965693e-09
5.467840476e-09
4.774202848e-09
3.992717117e-09
3.120185336e-09
2.1566017e-09
1.106339978e-09
-2.066376311e-11
-1.207991319e-09
-2.432491392e-09
1.040815678e-08
1.040706519e-08
1.040435025e-08
1.039999761e-08
1.039419103e-08
1.03870259e-08
1.037851617e-08
1.036867578e-08
1.035754131e-08
1.034515448e-08
1.033154722e-08
1.031673791e-08
1.03007302e-08
1.028350917e-08
1.02650353e-08
1.024523794e-08
1.022400815e-08
1.02011908e-08
1.017657548e-08
1.014988556e-08
1.012076535e-08
1.00887651e-08
1.005332366e-08
1.001374835e-08
9.969191004e-09
9.91861968e-09
9.860785356e-09
9.794183286e-09
9.717007851e-09
9.627099933e-09
9.52188653e-09
9.398313036e-09
9.252768477e-09
9.081004449e-09
8.878050858e-09
8.638133674e-09
8.35460178e-09
8.019875701e-09
7.625440249e-09
7.161908401e-09
6.619190388e-09
5.986816958e-09
5.254477357e-09
4.412831942e-09
3.454654234e-09
2.376339024e-09
1.179753234e-09
-1.256537002e-10
-1.520750236e-09
-2.975291699e-09
1.049293502e-08
1.049222665e-08
1.049046509e-08
1.04876486e-08
1.048390801e-08
1.047931934e-08
1.047390884e-08
1.046770587e-08
1.046075677e-08
1.045311274e-08
1.044481947e-08
1.043591395e-08
1.042642271e-08
1.041635802e-08
1.040571245e-08
1.039445282e-08
1.038251363e-08
1.036978961e-08
1.035612677e-08
1.034131153e-08
1.032505766e-08
1.030699106e-08
1.028663183e-08
1.026337297e-08
1.023645453e-08
1.020493241e-08
1.016764084e-08
1.012314792e-08
1.006970229e-08
1.000516924e-08
9.926954648e-09
9.831916175e-09
9.716260829e-09
9.575427317e-09
9.403953101e-09
9.195330132e-09
8.941855934e-09
8.634490875e-09
8.262742164e-09
7.814608012e-09
7.276628436e-09
6.634113384e-09
5.871652475e-09
4.974034811e-09
3.927713381e-09
2.722937394e-09
1.356544617e-09
-1.646626638e-10
-1.820282998e-09
-3.572625927e-09
1.057919708e-08
1.057886032e-08
1.057802377e-08
1.05766984e-08
1.057496525e-08
1.057288391e-08
1.057049551e-08
1.056784785e-08
1.056500085e-08
1.056201962e-08
1.055896871e-08
1.055590951e-08
1.055289789e-08
1.054998053e-08
1.054719018e-08
1.054454054e-08
1.054202043e-08
1.053958705e-08
1.053715742e-08
1.053459807e-08
1.053171274e-08
1.052822773e-08
1.052377419e-08
1.051786622e-08
1.050987431e-08
1.049899281e-08
1.048420009e-08
1.046420952e-08
1.043740937e-08
1.040178941e-08
1.035485115e-08
1.029349887e-08
1.021390846e-08
1.011136986e-08
9.980099032e-09
9.813018591e-09
9.601510552e-09
9.335146062e-09
9.001405763e-09
8.585422799e-09
8.069799187e-09
7.434580763e-09
6.657530523e-09
5.714924302e-09
4.583168769e-09
3.241722406e-09
1.677595371e-09
-1.083536381e-10
-2.094896171e-09
-4.234513228e-09
1.066616129e-08
1.066618331e-08
1.066623946e-08
1.06663534e-08
1.066655951e-08
1.066690361e-08
1.066744386e-08
1.066824892e-08
1.066939541e-08
1.067096615e-08
1.06730488e-08
1.067573392e-08
1.067911207e-08
1.068327035e-08
1.068828874e-08
1.069423607e-08
1.070116521e-08
1.070910708e-08
1.071806311e-08
1.072799615e-08
1.073881967e-08
1.075038453e-08
1.076246222e-08
1.077472381e-08
1.078671399e-08
1.079781915e-08
1.080722738e-08
1.08138776e-08
1.081639575e-08
1.081301519e-08
1.080147718e-08
1.077890571e-08
1.074165048e-08
1.068509107e-08
1.060339342e-08
1.048920926e-08
1.033331265e-08
1.012416826e-08
9.847429952e-09
9.485387707e-09
9.016410186e-09
8.414461743e-09
7.648829504e-09
6.684311071e-09
5.482187705e-09
4.002986764e-09
2.211695464e-09
8.988651398e-11
-2.348915102e-09
-5.034574245e-09
1.075307486e-08
1.075344082e-08
1.075435178e-08
1.075584398e-08
1.075790847e-08
1.076057982e-08
1.076393469e-08
1.076806446e-08
1.077306483e-08
1.077903929e-08
1.078610188e-08
1.07943759e-08
1.080399054e-08
1.081507809e-08
1.082777139e-08
1.08422011e-08
1.0858492e-08
1.087675812e-08
1.089709684e-08
1.091958169e-08
1.094425358e-08
1.097110955e-08
1.100008817e-08
1.103105106e-08
1.10637595e-08
1.109784494e-08
1.113277125e-08
1.116778593e-08
1.120185713e-08
1.123359321e-08
1.126113973e-08
1.128204564e-08
1.129308912e-08
1.129005251e-08
1.126743222e-08
1.121806332e-08
1.113263652e-08
1.099908353e-08
1.080180346e-08
1.05207124e-08
1.013013433e-08
9.59759292e-09
8.882690765e-09
7.936306485e-09
6.700543795e-09
5.110056184e-09
3.093617746e-09
5.875206719e-10
-2.457710504e-09
-5.972109531e-09
1.083921732e-08
1.083990971e-08
1.084163082e-08
1.084442945e-08
1.084825678e-08
1.085313835e-08
1.085917033e-08
1.086646776e-08
1.087514713e-08
1.088533447e-08
1.089717237e-08
1.091081905e-08
1.092644501e-08
1.094423091e-08
1.096436643e-08
1.098704876e-08
1.101248015e-08
1.104086464e-08
1.107240431e-08
1.110729457e-08
1.114571777e-08
1.118783458e-08
1.123377275e-08
1.128361287e-08
1.133736977e-08
1.139496759e-08
1.145620714e-08
1.152072328e-08
1.158792866e-08
1.165693932e-08
1.172647646e-08
1.17947355e-08
1.185921013e-08
1.191645661e-08
1.196177893e-08
1.198880428e-08
1.198890645e-08
1.195042469e-08
1.185760775e-08
1.168918805e-08
1.141650013e-08
1.100104711e-08
1.039170008e-08
9.521614603e-09
8.307145869e-09
6.647398942e-09
4.4318833e-09
1.549672975e-09
-2.147984171e-09
-6.664499137e-09
1.0923905e-08
1.092490317e-08
1.092738247e-08
1.09314041e-08
1.093688298e-08
1.094383751e-08
1.095238363e-08
1.096266027e-08
1.097480538e-08
1.098896853e-08
1.100532167e-08
1.10240589e-08
1.104539322e-08
1.106955522e-08
1.109679329e-08
1.112737342e-08
1.116157823e-08
1.11997057e-08
1.124206779e-08
1.128898839e-08
1.134079993e-08
1.139783821e-08
1.146043564e-08
1.152891242e-08
1.160356421e-08
1.168464459e-08
1.177234066e-08
1.186674066e-08
1.196779007e-08
1.207523102e-08
1.218851883e-08
1.230670789e-08
1.242829406e-08
1.255099557e-08
1.267144916e-08
1.278478547e-08
1.288402673e-08
1.295922676e-08
1.299623612e-08
1.29748973e-08
1.286639457e-08
1.262925731e-08
1.220364761e-08
1.150228218e-08
1.040169764e-08
8.72389543e-09
6.26256964e-09
2.749434033e-09
-1.972736369e-09
-7.895353029e-09
1.100649662e-08
1.100777662e-08
1.101095476e-08
1.101610419e-08
1.102310715e-08
1.103197646e-08
1.104284734e-08
1.105588203e-08
1.10712397e-08
1.108909334e-08
1.110964395e-08
1.113312122e-08
1.115978036e-08
1.118990156e-08
1.122379146e-08
1.126178439e-08
1.130424321e-08
1.135156021e-08
1.140415801e-08
1.14624902e-08
1.152704137e-08
1.159832643e-08
1.167688909e-08
1.176329914e-08
1.185814742e-08
1.196203765e-08
1.207557363e-08
1.219934052e-08
1.233387806e-08
1.247964085e-08
1.263693988e-08
1.280585904e-08
1.29861362e-08
1.317699103e-08
1.33768751e-08
1.35831106e-08
1.379136101e-08
1.39948458e-08
1.418316551e-08
1.434050117e-08
1.444279792e-08
1.445313515e-08
1.431416123e-08
1.393362331e-08
1.316250736e-08
1.173436094e-08
9.237955777e-09
4.787101832e-09
-2.294324095e-09
-1.367029046e-08
1.108639973e-08
1.108793454e-08
1.1091745e-08
1.109791543e-08
1.110629893e-08
1.111690389e-08
1.112988368e-08
1.11454224e-08
1.116369943e-08
1.118491003e-08
1.120928293e-08
1.123708177e-08
1.126860202e-08
1.13041712e-08
1.134415137e-08
1.1388942e-08
1.143898274e-08
1.14947564e-08
1.155679211e-08
1.162566853e-08
1.170201751e-08
1.17865283e-08
1.187995177e-08
1.198310408e-08
1.209686966e-08
1.222220351e-08
1.236013168e-08
1.25117488e-08
1.267821126e-08
1.286072362e-08
1.306051314e-08
1.327878748e-08
1.351666941e-08
1.377509535e-08
1.405465641e-08
1.435535539e-08
1.467623833e-08
1.50148295e-08
1.536626236e-08
1.572192536e-08
1.606731384e-08
1.637848458e-08
1.661614138e-08
1.671427845e-08
1.656034626e-08
1.593782519e-08
1.44484472e-08
1.096334707e-08
3.781518555e-09
-1.70822416e-08
1.116307763e-08
1.116483742e-08
1.116920696e-08
1.117628043e-08
1.118588541e-08
1.119802664e-08
1.121287392e-08
1.123063107e-08
1.125149581e-08
1.127568375e-08
1.130344902e-08
1.133508625e-08
1.137092757e-08
1.141134342e-08
1.145674626e-08
1.150759491e-08
1.1564399e-08
1.162772374e-08
1.169819527e-08
1.177650665e-08
1.186342501e-08
1.195980022e-08
1.206657449e-08
1.218479269e-08
1.231561337e-08
1.246032146e-08
1.262034244e-08
1.27972566e-08
1.299281285e-08
1.320894264e-08
1.344777109e-08
1.371162107e-08