/*--------------------------------*- C++ -*----------------------------------*\
| =========                 |                                                 |
| \\      /  F ield         | foam-extend: Open Source CFD                    |
|  \\    /   O peration     | Version:     4.1                                |
|   \\  /    A nd           | Web:         http://www.foam-extend.org         |
|    \\/     M anipulation  |                                                 |
\*---------------------------------------------------------------------------*/
FoamFile
{
    version     2.0;
    format      ascii;
    class       surfaceScalarField;
    location    "110000";
    object      phi;
}
// * * * * * * * * * * * * * * * * * * * * * * * * * * * * * * * * * * * * * //

dimensions      [0 3 -1 0 0 0 0];

internalField   nonuniform List<scalar> 
31542
(
1.062533764e-07
3.076623637e-09
1.006183858e-07
5.634991685e-09
9.410920722e-08
6.509178947e-09
8.731702585e-08
6.792181052e-09
8.052214382e-08
6.794881185e-09
7.39830293e-08
6.539113383e-09
6.787312769e-08
6.109900451e-09
6.22871225e-08
5.586004215e-09
5.727031789e-08
5.016803981e-09
5.283322237e-08
4.4370953e-09
4.896179478e-08
3.871427747e-09
4.562384751e-08
3.337947692e-09
4.277515717e-08
2.848690932e-09
4.036526208e-08
2.409895757e-09
3.834177734e-08
2.023485469e-09
3.665331148e-08
1.688466675e-09
3.525139032e-08
1.40192206e-09
3.409164299e-08
1.159748334e-09
3.313441279e-08
9.572312102e-10
3.234494839e-08
7.894652761e-10
3.169331105e-08
6.516379614e-10
3.115409809e-08
5.392132044e-10
3.070605675e-08
4.480411983e-10
3.033162495e-08
3.74431352e-10
3.001643545e-08
3.151889059e-10
2.97488502e-08
2.67584705e-10
2.951952424e-08
2.293256061e-10
2.932100377e-08
1.98520413e-10
2.914736619e-08
1.736378161e-10
2.899390629e-08
1.534604271e-10
2.885686811e-08
1.370389174e-10
2.873322069e-08
1.236483464e-10
2.862047391e-08
1.127478495e-10
2.851653063e-08
1.039444663e-10
2.841957027e-08
9.69616063e-11
2.832795937e-08
9.161211299e-11
2.82401851e-08
8.777530042e-11
2.815480834e-08
8.537748575e-11
2.807043189e-08
8.437678302e-11
2.798567894e-08
8.47528911e-11
2.789917986e-08
8.649873882e-11
2.780956857e-08
8.961080881e-11
2.771548807e-08
9.408005826e-11
2.76156016e-08
9.988615287e-11
2.750860688e-08
1.069945492e-10
2.739325185e-08
1.153549728e-10
2.726835104e-08
1.249007563e-10
2.71328018e-08
1.355491228e-10
2.698559973e-08
1.472018374e-10
1.597457375e-10
2.682585367e-08
1.11383272e-07
1.02335092e-09
1.139962403e-07
3.022023123e-09
1.160872402e-07
4.418179465e-09
1.174658199e-07
5.413602099e-09
1.180899057e-07
6.170796219e-09
1.17953621e-07
6.675398934e-09
1.171491248e-07
6.914397402e-09
1.158035027e-07
6.931626784e-09
1.140422208e-07
6.778086171e-09
1.119825246e-07
6.496791342e-09
1.097288324e-07
6.12511937e-09
1.073696354e-07
5.697143735e-09
1.049764019e-07
5.24192311e-09
1.026047861e-07
4.781509946e-09
1.002961869e-07
4.33208298e-09
9.807981657e-08
3.904835335e-09
9.597484563e-08
3.506891499e-09
9.399246577e-08
3.142126912e-09
9.213776985e-08
2.811926077e-09
9.041136222e-08
2.51587202e-09
8.881066839e-08
2.252331043e-09
8.733095931e-08
2.018921721e-09
8.596617785e-08
1.812822336e-09
8.470955043e-08
1.631058762e-09
8.35539387e-08
1.470800919e-09
8.249214638e-08
1.329377488e-09
8.151711379e-08
1.204358609e-09
8.062204239e-08
1.093591873e-09
7.980046761e-08
9.952120827e-10
7.90462919e-08
9.076349444e-10
7.835378945e-08
8.2953957e-10
7.771759193e-08
7.598436964e-10
7.713266245e-08
6.976750723e-10
7.659426314e-08
6.423417233e-10
7.609792012e-08
5.93302935e-10
7.563938908e-08
5.50141859e-10
7.52146232e-08
5.125401979e-10
7.48197443e-08
4.802556619e-10
7.445101774e-08
4.531027894e-10
7.410483351e-08
4.309367658e-10
7.377769314e-08
4.136389467e-10
7.346620067e-08
4.011033251e-10
7.316705639e-08
3.932245242e-10
7.287705456e-08
3.898881877e-10
7.259308519e-08
3.909639743e-10
7.231213944e-08
3.963004868e-10
7.203131828e-08
4.057213734e-10
7.174784312e-08
4.190235196e-10
7.145906879e-08
4.359752866e-10
4.563155934e-10
7.116249802e-08
1.096494343e-07
7.039169731e-10
1.107411371e-07
1.930319629e-09
1.122100527e-07
2.949262776e-09
1.138764633e-07
3.747190225e-09
1.156508584e-07
4.396400016e-09
1.174049572e-07
4.921299158e-09
1.190127046e-07
5.30664951e-09
1.203925868e-07
5.551744541e-09
1.214990199e-07
5.671653311e-09
1.22312612e-07
5.683199817e-09
1.228351786e-07
5.602553354e-09
1.230851505e-07
5.447172551e-09
1.230917745e-07
5.235299866e-09
1.228892335e-07
4.984051712e-09
1.225129245e-07
4.708392716e-09
1.219969687e-07
4.420791981e-09
1.213727076e-07
4.13115351e-09
1.206678854e-07
3.846949864e-09
1.199063514e-07
3.573460561e-09
1.191081145e-07
3.314109121e-09
1.182896119e-07
3.070833568e-09
1.174640957e-07
2.84443755e-09
1.166420202e-07
2.634897311e-09
1.158314411e-07
2.441637482e-09
1.150384819e-07
2.26375987e-09
1.142676735e-07
2.100185982e-09
1.135222595e-07
1.949772911e-09
1.12804452e-07
1.811400025e-09
1.121156384e-07
1.68402646e-09
1.114565491e-07
1.566725255e-09
1.108273896e-07
1.458700105e-09
1.10227945e-07
1.359289398e-09
1.096576598e-07
1.26796133e-09
1.091156993e-07
1.184303099e-09
1.086009964e-07
1.108006538e-09
1.081122867e-07
1.038851814e-09
1.076481363e-07
9.766905334e-10
1.072069626e-07
9.214290881e-10
1.067870519e-07
8.730129841e-10
1.063865756e-07
8.314124533e-10
1.06003605e-07
7.966090744e-10
1.056361247e-07
7.685833311e-10
1.052820459e-07
7.473031823e-10
1.049392201e-07
7.327139258e-10
1.046054537e-07
7.247303858e-10
1.042785232e-07
7.232308876e-10
1.03956194e-07
7.280503762e-10
1.036362366e-07
7.389806747e-10
1.033164446e-07
7.557670109e-10
7.781064844e-10
1.029946535e-07
1.095676168e-07
4.663007644e-10
1.100992727e-07
1.398664253e-09
1.10826844e-07
2.221691742e-09
1.116773809e-07
2.896653336e-09
1.126382378e-07
3.435542927e-09
1.136995942e-07
3.859942478e-09
1.148289634e-07
4.177280046e-09
1.15987307e-07
4.393400719e-09
1.171385361e-07
4.520423889e-09
1.182497476e-07
4.571987996e-09
1.192923945e-07
4.55990603e-09
1.20244672e-07
4.494894575e-09
1.21092519e-07
4.387452239e-09
1.218289531e-07
4.247617102e-09
1.224529323e-07
4.084413147e-09
1.229680672e-07
3.905656812e-09
1.233812816e-07
3.717938995e-09
1.23701586e-07
3.52664544e-09
1.23939046e-07
3.336000681e-09
1.241039929e-07
3.149162355e-09
1.242064677e-07
2.968358972e-09
1.24255859e-07
2.795046513e-09
1.242606917e-07
2.630064964e-09
1.242285433e-07
2.473786044e-09
1.241660552e-07
2.326248051e-09
1.240789728e-07
2.187268239e-09
1.239722144e-07
2.056530929e-09
1.238499558e-07
1.933658008e-09
1.237157188e-07
1.818262686e-09
1.235724558e-07
1.709987513e-09
1.234226263e-07
1.608528953e-09
1.232682639e-07
1.513651279e-09
1.231110326e-07
1.425192107e-09
1.229522738e-07
1.343061512e-09
1.227930434e-07
1.267236578e-09
1.226341428e-07
1.197752139e-09
1.22476143e-07
1.134689967e-09
1.223194052e-07
1.078166693e-09
1.221640966e-07
1.028321347e-09
1.22010206e-07
9.853030267e-10
1.218575563e-07
9.492586775e-10
1.217058181e-07
9.203214426e-10
1.215545219e-07
8.985993307e-10
1.214030713e-07
8.841643612e-10
1.212507569e-07
8.77044624e-10
1.210967704e-07
8.77217175e-10
1.209402188e-07
8.846017808e-10
1.207801418e-07
8.990573516e-10
1.206155295e-07
9.203789406e-10
9.482959325e-10
1.204453396e-07
1.09442841e-07
3.534592476e-10
1.097730912e-07
1.068413502e-09
1.102709233e-07
1.723859307e-09
1.108828694e-07
2.28470702e-09
1.115716106e-07
2.746801638e-09
1.123137757e-07
3.117777441e-09
1.130882182e-07
3.402837787e-09
1.138760377e-07
3.605581512e-09
1.146634424e-07
3.73301946e-09
1.154403339e-07
3.795096815e-09
1.161981946e-07
3.802045565e-09
1.169296633e-07
3.763426044e-09
1.176288576e-07
3.688258078e-09
1.18291525e-07
3.584949865e-09
1.189149484e-07
3.460989871e-09
1.194978174e-07
3.322787765e-09
1.200400661e-07
3.175690311e-09
1.205426586e-07
3.024052741e-09
1.210073422e-07
2.871317042e-09
1.214364003e-07
2.720104206e-09
1.218324341e-07
2.572325175e-09
1.221981806e-07
2.429300264e-09
1.225363705e-07
2.29187548e-09
1.228496267e-07
2.160530329e-09
1.231403993e-07
2.035475827e-09
1.234109292e-07
1.916738666e-09
1.236632312e-07
1.804229238e-09
1.23899094e-07
1.697795454e-09
1.241200915e-07
1.597265481e-09
1.243275989e-07
1.50248032e-09
1.24522812e-07
1.413316006e-09
1.247067657e-07
1.329697573e-09
1.248803514e-07
1.251606239e-09
1.250443315e-07
1.179080927e-09
1.251993521e-07
1.112215413e-09
1.253459514e-07
1.051152109e-09
1.254845673e-07
9.960735022e-10
1.256155415e-07
9.471920539e-10
1.257391235e-07
9.047391052e-10
1.258554733e-07
8.68953163e-10
1.25964664e-07
8.400678947e-10
1.260666838e-07
8.183016467e-10
1.261614387e-07
8.038444987e-10
1.262487593e-07
7.968436751e-10
1.263284056e-07
7.973982806e-10
1.264000715e-07
8.055512641e-10
1.264633935e-07
8.212797261e-10
1.265179613e-07
8.444895453e-10
1.265633285e-07
8.750115199e-10
9.125981853e-10
1.265990259e-07
1.094076717e-07
2.757874296e-10
1.096455506e-07
8.305342225e-10
1.100184156e-07
1.350993961e-09
1.104906669e-07
1.812455417e-09
1.110323322e-07
2.205136123e-09
1.11621274e-07
2.528835608e-09
1.122388491e-07
2.785262576e-09
1.12868192e-07
2.976238612e-09
1.134956753e-07
3.105536034e-09
1.141114772e-07
3.179294877e-09
1.147087976e-07
3.20472504e-09
1.152831281e-07
3.189095589e-09
1.158318984e-07
3.139487734e-09
1.163541516e-07
3.062696771e-09
1.168501296e-07
2.965011872e-09
1.173209012e-07
2.852016097e-09
1.177680848e-07
2.72850663e-09
1.181936387e-07
2.598498727e-09
1.185996918e-07
2.465263945e-09
1.189884079e-07
2.331388346e-09
1.193618835e-07
2.19884995e-09
1.197220759e-07
2.069108246e-09
1.200707556e-07
1.943196066e-09
1.204094788e-07
1.821807278e-09
1.207395774e-07
1.705377096e-09
1.210621632e-07
1.594152698e-09
1.213781394e-07
1.488252793e-09
1.216882182e-07
1.387716541e-09
1.219929405e-07
1.292543158e-09
1.222926979e-07
1.202722947e-09
1.22587754e-07
1.118260018e-09
1.228782636e-07
1.039187865e-09
1.231642908e-07
9.6557889e-10
1.234458228e-07
8.975484404e-10
1.237227827e-07
8.352550682e-10
1.239950374e-07
7.7889693e-10
1.242624052e-07
7.287053416e-10
1.2452466e-07
6.849369376e-10
1.247815347e-07
6.478642791e-10
1.250327228e-07
6.177650068e-10
1.252778822e-07
5.94908354e-10
1.255166356e-07
5.795482016e-10
1.257485677e-07
5.719122877e-10
1.259732333e-07
5.721779849e-10
1.261901614e-07
5.804700588e-10
1.263988591e-07
5.968535935e-10
1.265988174e-07
6.213213499e-10
1.267895196e-07
6.537871984e-10
1.269704505e-07
6.940803775e-10
7.419402472e-10
1.271411082e-07
1.093888342e-07
2.169530779e-10
1.095654914e-07
6.538769056e-10
1.098469975e-07
1.069487794e-09
1.102129824e-07
1.446470423e-09
1.106433833e-07
1.774735345e-09
1.111212723e-07
2.050946649e-09
1.116317375e-07
2.274797512e-09
1.12160891e-07
2.44708511e-09
1.126964956e-07
2.569931482e-09
1.132287217e-07
2.647068807e-09
1.13750141e-07
2.683305844e-09
1.142553907e-07
2.683845995e-09
1.147409273e-07
2.653951206e-09
1.152048223e-07
2.598801785e-09
1.156464928e-07
2.523341145e-09
1.160663968e-07
2.432111861e-09
1.164657507e-07
2.329152435e-09
1.168462882e-07
2.217961059e-09
1.172100544e-07
2.101497734e-09
1.175592354e-07
1.982207519e-09
1.178960248e-07
1.862061008e-09
1.182225253e-07
1.742608348e-09
1.185406814e-07
1.62504044e-09
1.188522376e-07
1.510251402e-09
1.191587164e-07
1.398898516e-09
1.194614116e-07
1.291457454e-09
1.197613932e-07
1.188271265e-09
1.200595174e-07
1.089592347e-09
1.203564431e-07
9.956175861e-10
1.206526492e-07
9.065169384e-10
1.209484539e-07
8.224552557e-10
1.212440327e-07
7.43608944e-10
1.215394342e-07
6.701771857e-10
1.218345958e-07
6.023864274e-10
1.22129356e-07
5.404944166e-10
1.224234656e-07
4.847869189e-10
1.227165969e-07
4.355738084e-10
1.230083506e-07
3.931830299e-10
1.232982634e-07
3.579514531e-10
1.235858126e-07
3.302156948e-10
1.238704185e-07
3.103024328e-10
1.241514459e-07
2.985207784e-10
1.244282258e-07
2.951322771e-10
1.247000514e-07
3.003522436e-10
1.249661843e-07
3.143371101e-10
1.252258649e-07
3.371729012e-10
1.254783229e-07
3.68863275e-10
1.257227874e-07
4.093226242e-10
1.25958501e-07
4.58366409e-10
5.157061742e-10
1.261847348e-07
1.093750754e-07
1.718774766e-10
1.095107101e-07
5.182419521e-10
1.097298465e-07
8.5035138e-10
1.100204395e-07
1.155877421e-09
1.103687153e-07
1.426459482e-09
1.107616035e-07
1.658058462e-09
1.11187169e-07
1.849231991e-09
1.116344122e-07
1.999841816e-09
1.120934799e-07
2.110863655e-09
1.125560716e-07
2.184477153e-09
1.130155555e-07
2.223822045e-09
1.134668337e-07
2.232567921e-09
1.139061857e-07
2.214599317e-09
1.143311434e-07
2.173844167e-09
1.147403427e-07
2.114141667e-09
1.151333395e-07
2.039114808e-09
1.155104173e-07
1.952074407e-09
1.158724097e-07
1.855968488e-09
1.162205418e-07
1.753365602e-09
1.165562908e-07
1.64645872e-09
1.16881268e-07
1.537084095e-09
1.171971244e-07
1.426752286e-09
1.175054777e-07
1.316687373e-09
1.178078593e-07
1.207869932e-09
1.181056776e-07
1.101080286e-09
1.18400195e-07
9.969401771e-10
1.186925152e-07
8.959511143e-10
1.189835795e-07
7.985280956e-10
1.192741677e-07
7.050294377e-10
1.195649026e-07
6.157821848e-10
1.198562576e-07
5.311003046e-10
1.201485658e-07
4.513006703e-10
1.204420275e-07
3.767154195e-10
1.207367183e-07
3.076953811e-10
1.210325899e-07
2.446225213e-10
1.213294893e-07
1.878872454e-10
1.216271575e-07
1.379054503e-10
1.21925233e-07
9.510730022e-11
1.222232574e-07
5.992689825e-11
1.225206878e-07
3.278519038e-11
1.228169252e-07
1.406497775e-11
1.231112499e-07
4.196030748e-12
1.234028571e-07
3.525055875e-12
1.236908896e-07
1.231960082e-11
1.239744651e-07
3.076148966e-11
1.242526508e-07
5.898704176e-11
1.245244818e-07
9.703205775e-11
1.247889775e-07
1.448267979e-10
1.250451639e-07
2.021799657e-10
2.687939811e-10
1.252920759e-07
1.093658054e-07
1.360720197e-10
1.094736578e-07
4.103895102e-10
1.096491804e-07
6.748287958e-10
1.098845969e-07
9.204610176e-10
1.101703431e-07
1.140713268e-09
1.104966805e-07
1.331721069e-09
1.108543874e-07
1.491524931e-09
1.11234864e-07
1.61936511e-09
1.116302559e-07
1.715471793e-09
1.120336948e-07
1.781038297e-09
1.124394538e-07
1.818063101e-09
1.128429446e-07
1.829077309e-09
1.132406427e-07
1.816901276e-09
1.136300048e-07
1.784482015e-09
1.140093717e-07
1.734774623e-09
1.14377848e-07
1.670638385e-09
1.147351694e-07
1.594752835e-09
1.150815742e-07
1.50956371e-09
1.154176838e-07
1.417256168e-09
1.157443956e-07
1.319747056e-09
1.160627893e-07
1.218690692e-09
1.163740466e-07
1.115495249e-09
1.16679387e-07
1.011347214e-09
1.169800168e-07
9.072403466e-10
1.172770911e-07
8.040060746e-10
1.175716861e-07
7.023452815e-10
1.178647789e-07
6.028583308e-10
1.181572362e-07
5.060708659e-10
1.184498077e-07
4.124578913e-10
1.187431225e-07
3.224673594e-10
1.190376847e-07
2.365381007e-10
1.193338718e-07
1.551135497e-10
1.196319476e-07
7.863967675e-11
1.199320715e-07
7.571389952e-12
1.202342414e-07
-5.754748595e-11
1.205383693e-07
-1.162409026e-10
1.208442416e-07
-1.679671146e-10
1.211515275e-07
-2.121787333e-10
1.21459783e-07
-2.483288266e-10
1.217684458e-07
-2.758776168e-10
1.220768145e-07
-2.94303785e-10
1.223841249e-07
-3.031144253e-10
1.22689528e-07
-3.018780868e-10
1.229920747e-07
-2.902270657e-10
1.232907102e-07
-2.678741495e-10
1.235843259e-07
-2.346288369e-10
1.238717718e-07
-1.904141773e-10
1.241518777e-07
-1.352793085e-10
1.244234753e-07
-6.941761467e-11
6.991441318e-12
1.24685278e-07
1.093591866e-07
1.068854502e-10
1.094469996e-07
3.225764668e-10
1.095905076e-07
5.313209233e-10
1.097844739e-07
7.264946686e-10
1.100222303e-07
9.029568735e-10
1.102966303e-07
1.05732095e-09
1.106006072e-07
1.187547936e-09
1.109273938e-07
1.292578405e-09
1.112706766e-07
1.372189022e-09
1.116247829e-07
1.426932124e-09
1.119848286e-07
1.458017541e-09
1.123467694e-07
1.467136655e-09
1.127073815e-07
1.456289236e-09
1.130642151e-07
1.427648538e-09
1.134155321e-07
1.383457618e-09
1.137602283e-07
1.325942299e-09
1.140977415e-07
1.257239731e-09
1.144279579e-07
1.179347427e-09
1.147511213e-07
1.094092873e-09
1.150677492e-07
1.003119277e-09
1.153785569e-07
9.07883104e-10
1.156843919e-07
8.096604269e-10
1.159861774e-07
7.09561923e-10
1.162848661e-07
6.085519407e-10
1.165814047e-07
5.074676914e-10
1.168767059e-07
4.07044238e-10
1.171716265e-07
3.079376782e-10
1.174669456e-07
2.107516081e-10
1.177633568e-07
1.160466057e-10
1.180614703e-07
2.43536989e-11
1.183617962e-07
-6.378776991e-11
1.186647147e-07
-1.478049568e-10
1.189705188e-07
-2.271644254e-10
1.192793542e-07
-3.012640802e-10
1.195912906e-07
-3.694840145e-10
1.199062426e-07
-4.311931798e-10
1.202240061e-07
-4.857308717e-10
1.205442474e-07
-5.324202753e-10
1.208664989e-07
-5.705805163e-10
1.211901591e-07
-5.995378031e-10
1.215144965e-07
-6.186411343e-10
1.218386557e-07
-6.272735731e-10
1.22161647e-07
-6.248693389e-10
1.224823655e-07
-6.109455875e-10
1.227996042e-07
-5.85112832e-10
1.231120667e-07
-5.47091433e-10
1.234183862e-07
-4.967337873e-10
1.237171464e-07
-4.340397776e-10
1.240068978e-07
-3.591691246e-10
-2.724467733e-10
1.242863362e-07
1.093542418e-07
8.26436781e-11
1.094271261e-07
2.496922375e-10
1.095466072e-07
4.118398128e-10
1.097090356e-07
5.640662439e-10
1.099096515e-07
7.023408291e-10
1.101431583e-07
8.238140448e-10
1.104041276e-07
9.265786003e-10
1.106872324e-07
1.009473566e-09
1.109874121e-07
1.07200946e-09
1.113000259e-07
1.114318418e-09
1.116209746e-07
1.137068972e-09
1.119467646e-07
1.141346831e-09
1.122745209e-07
1.128533098e-09
1.126019708e-07
1.100198994e-09
1.129274095e-07
1.058019267e-09
1.132496524e-07
1.003699768e-09
1.135679747e-07
9.389177547e-10
1.138820454e-07
8.65276991e-10
1.141918603e-07
7.84278138e-10
1.144976776e-07
6.973021146e-10
1.147999573e-07
6.0560354e-10
1.150993081e-07
5.10309762e-10
1.1539644e-07
4.12430326e-10
1.156921236e-07
3.128685938e-10
1.159871534e-07
2.124380322e-10
1.162823169e-07
1.118807504e-10
1.165783997e-07
1.185475423e-11
1.168761199e-07
-8.69688063e-11
1.171761362e-07
-1.839699535e-10
1.174790462e-07
-2.785564853e-10
1.177853482e-07
-3.700899124e-10
1.180954696e-07
-4.579264519e-10
1.184097104e-07
-5.414053372e-10
1.187282694e-07
-6.198231202e-10
1.190512253e-07
-6.924401477e-10
1.193785186e-07
-7.584867068e-10
1.19709952e-07
-8.171645532e-10
1.200451838e-07
-8.676523166e-10
1.2038372e-07
-9.09116872e-10
1.207249096e-07
-9.4072745e-10
1.210679407e-07
-9.61672031e-10
1.214118422e-07
-9.711748563e-10
1.217554923e-07
-9.685191907e-10
1.220976207e-07
-9.530739579e-10
1.224368207e-07
-9.243128525e-10
1.22771567e-07
-8.818377381e-10
1.231002375e-07
-8.254042577e-10
1.234211406e-07
-7.549427984e-10
1.237325483e-07
-6.705769554e-10
-5.726410127e-10
1.240327424e-07
1.093504634e-07
6.218030918e-11
1.094119549e-07
1.882006722e-10
1.095129923e-07
3.10802274e-10
1.096509423e-07
4.261160938e-10
1.098223228e-07
5.309602674e-10
1.100231641e-07
6.22972648e-10
1.102492919e-07
7.004508777e-10
1.104965212e-07
7.622442964e-10
1.107608053e-07
8.077255468e-10
1.110383621e-07
8.367616499e-10
1.113257772e-07
8.496541099e-10
1.11620068e-07
8.470562243e-10
1.119187147e-07
8.298868082e-10
1.122196631e-07
7.992510701e-10
1.125213116e-07
7.563714658e-10
1.128224829e-07
7.025290994e-10
1.131223869e-07
6.390142506e-10
1.134205757e-07
5.670885653e-10
1.137168949e-07
4.879591041e-10
1.140114363e-07
4.027608994e-10
1.14304492e-07
3.125480232e-10
1.145965081e-07
2.182938634e-10
1.148880352e-07
1.209034392e-10
1.151797303e-07
2.117368802e-11
1.154722941e-07
-8.012564162e-11
1.157664226e-07
-1.822477609e-10
1.160628306e-07
-2.845535173e-10
1.1636222e-07
-3.863584893e-10
1.166652539e-07
-4.870041939e-10
1.169725252e-07
-5.858281368e-10
1.172845713e-07
-6.821363012e-10
1.176018465e-07
-7.752019372e-10
1.179246984e-07
-8.64257331e-10
1.182533648e-07
-9.484897523e-10
1.185879615e-07
-1.027037035e-09
1.189284641e-07
-1.098989611e-09
1.192746951e-07
-1.163395902e-09
1.196263126e-07
-1.219269996e-09
1.19982799e-07
-1.265603347e-09
1.203434521e-07
-1.301380511e-09
1.207073788e-07
-1.325598519e-09
1.210734936e-07
-1.337289262e-09
1.214405199e-07
-1.335545196e-09
1.218069942e-07
-1.319548059e-09
1.221712791e-07
-1.288597642e-09
1.225315828e-07
-1.242141472e-09
1.228859835e-07
-1.179805017e-09
1.232324602e-07
-1.10141944e-09
1.235689295e-07
-1.007046172e-09
-8.96998109e-10
1.238932865e-07
1.093475099e-07
4.467038546e-11
1.094001015e-07
1.356087467e-10
1.094866671e-07
2.242364568e-10
1.096052547e-07
3.075282833e-10
1.097532655e-07
3.829493745e-10
1.099276894e-07
4.485487357e-10
1.101252988e-07
5.028416417e-10
1.103427973e-07
5.44745943e-10
1.105769439e-07
5.735791043e-10
1.108246589e-07
5.890467637e-10
1.110831112e-07
5.912019895e-10
1.113497791e-07
5.80388666e-10
1.116224861e-07
5.571803472e-10
1.118994159e-07
5.223219773e-10
1.121791119e-07
4.766763237e-10
1.124604627e-07
4.21179126e-10
1.127426826e-07
3.567949748e-10
1.13025283e-07
2.844885809e-10
1.13308034e-07
2.052083256e-10
1.135909254e-07
1.198697196e-10
1.138741521e-07
2.932141279e-11
1.141580878e-07
-6.564162741e-11
1.144431562e-07
-1.641648311e-10
1.147299399e-07
-2.656098083e-10
1.150190597e-07
-3.692454358e-10
1.153112099e-07
-4.743981033e-10
1.156070724e-07
-5.804161537e-10
1.159073473e-07
-6.866337951e-10
1.162127141e-07
-7.923713943e-10
1.165238071e-07
-8.969215779e-10
1.168412073e-07
-9.99536886e-10
1.171654224e-07
-1.099417317e-09
1.174968675e-07
-1.195702687e-09
1.178358466e-07
-1.287469122e-09
1.181825344e-07
-1.373725228e-09
1.185369574e-07
-1.453412875e-09
1.188989741e-07
-1.525412891e-09
1.192682578e-07
-1.588553922e-09
1.196442799e-07
-1.641625366e-09
1.200262948e-07
-1.68339526e-09
1.204133293e-07
-1.712632819e-09
1.208041754e-07
-1.728135152e-09
1.211973885e-07
-1.728758052e-09
1.215912913e-07
-1.713450536e-09
1.219839853e-07
-1.681291436e-09
1.22373371e-07
-1.631527088e-09
1.227571752e-07
-1.56360934e-09
1.231329874e-07
-1.477231676e-09
1.234983027e-07
-1.372361474e-09
-1.249267596e-09
1.238505721e-07
1.093451503e-07
2.951994479e-11
1.093906439e-07
9.011461335e-11
1.094656285e-07
1.492514992e-10
1.095686243e-07
2.045322827e-10
1.096976575e-07
2.539161327e-10
1.098504165e-07
2.957898013e-10
1.100243851e-07
3.288732806e-10
1.102169541e-07
3.521771012e-10
1.104255221e-07
3.65011291e-10
1.106475828e-07
3.669861381e-10
1.108807984e-07
3.57986665e-10
1.111230529e-07
3.381346367e-10
1.113724886e-07
3.077452211e-10
1.116275278e-07
2.672836036e-10
1.11886881e-07
2.173240031e-10
1.121495292e-07
1.585316112e-10
1.12414739e-07
9.158574172e-11
1.126820351e-07
1.719294532e-11
1.129511804e-07
-6.393667921e-11
1.132221114e-07
-1.510610416e-10
1.134949763e-07
-2.435433514e-10
1.137700451e-07
-3.4071038e-10
1.140477884e-07
-4.419080658e-10
1.143287094e-07
-5.465307525e-10
1.146134255e-07
-6.539614768e-10
1.149026121e-07
-7.635847556e-10
1.151969732e-07
-8.747774142e-10
1.154972348e-07
-9.868956454e-10
1.158041212e-07
-1.099258198e-09
1.161183335e-07
-1.211134328e-09
1.164405294e-07
-1.321733189e-09
1.167713027e-07
-1.430190961e-09
1.17111161e-07
-1.535561385e-09
1.174605017e-07
-1.636810279e-09
1.178195882e-07
-1.732812138e-09
1.181885252e-07
-1.82235018e-09
1.185672333e-07
-1.904121186e-09
1.189554241e-07
-1.976744906e-09
1.193525772e-07
-2.038778404e-09
1.19757918e-07
-2.088736047e-09
1.201704007e-07
-2.125115385e-09
1.205886945e-07
-2.146428783e-09
1.210111771e-07
-2.151240593e-09
1.21435936e-07
-2.138209239e-09
1.218607777e-07
-2.10613293e-09
1.222832484e-07
-2.053997644e-09
1.227006649e-07
-1.981025782e-09
1.231101564e-07
-1.886723185e-09
1.235087168e-07
-1.770921799e-09
-1.633816159e-09
1.238932653e-07
1.093432215e-07
1.62981333e-11
1.093829442e-07
5.039133399e-11
1.094484876e-07
8.37076658e-11
1.095387047e-07
1.143150026e-10
1.096520701e-07
1.405508478e-10
1.097867857e-07
1.610743659e-10
1.099408746e-07
1.747845684e-10
1.101122631e-07
1.807887488e-10
1.102988586e-07
1.784159996e-10
1.104986207e-07
1.672242371e-10
1.107096237e-07
1.46983939e-10
1.109300998e-07
1.176590023e-10
1.111584765e-07
7.93691392e-11
1.113933979e-07
3.236283598e-11
1.116337758e-07
-2.305322501e-11
1.118786702e-07
-8.636218474e-11
1.121274485e-07
-1.571920996e-10
1.123796676e-07
-2.35025741e-10
1.126350872e-07
-3.19356056e-10
1.128936929e-07
-4.096665041e-10
1.131556057e-07
-5.054560995e-10
1.134211127e-07
-6.062173212e-10
1.136906457e-07
-7.114410013e-10
1.139647309e-07
-8.206159202e-10
1.14243994e-07
-9.332245256e-10
1.145291368e-07
-1.048727558e-09
1.14820915e-07
-1.166555699e-09
1.151201182e-07
-1.286098917e-09
1.154275505e-07
-1.406690749e-09
1.157440101e-07
-1.527594239e-09
1.160702651e-07
-1.647988574e-09
1.164070295e-07
-1.766955874e-09
1.167549377e-07
-1.883470194e-09
1.171145164e-07
-1.996389522e-09
1.174861546e-07
-2.10445071e-09
1.178700722e-07
-2.206268131e-09
1.18266288e-07
-2.300337213e-09
1.186745864e-07
-2.385043421e-09
1.190944852e-07
-2.458677311e-09
1.195252056e-07
-2.519456493e-09
1.199656452e-07
-2.565555069e-09
1.204143571e-07
-2.595140728e-09
1.208695359e-07
-2.606419353e-09
1.213290132e-07
-2.597686534e-09
1.217902652e-07
-2.567384726e-09
1.22250432e-07
-2.514164246e-09
1.227063522e-07
-2.436945904e-09
1.231546115e-07
-2.334982411e-09
1.235916051e-07
-2.207915149e-09
-2.055823086e-09
1.240136123e-07
1.093416184e-07
4.679378803e-12
1.093765445e-07
1.546464411e-11
1.094342243e-07
2.602758614e-11
1.095137643e-07
3.47748561e-11
1.096139742e-07
4.034115178e-11
1.097334356e-07
4.161309447e-11
1.098705736e-07
3.76468654e-11
1.100237233e-07
2.76392079e-11
1.101911939e-07
1.094556333e-11
1.10371321e-07
-1.290260226e-11
1.105625313e-07
-4.422612905e-11
1.107633539e-07
-8.316316285e-11
1.109724745e-07
-1.297510294e-10
1.111887512e-07
-1.839134102e-10
1.114111923e-07
-2.454939256e-10
1.116390876e-07
-3.142571107e-10
1.118718481e-07
-3.899522384e-10
1.121091038e-07
-4.72281118e-10
1.123506729e-07
-5.609249221e-10
1.125965572e-07
-6.555506313e-10
1.128469148e-07
-7.558136457e-10
1.131020566e-07
-8.613590715e-10
1.133624318e-07
-9.718161659e-10
1.136286111e-07
-1.086795137e-09
1.139012689e-07
-1.205882203e-09
1.141811684e-07
-1.328627026e-09
1.144691444e-07
-1.454531632e-09
1.147660833e-07
-1.583037794e-09
1.150729038e-07
-1.713511363e-09
1.153905352e-07
-1.845225881e-09
1.157198927e-07
-1.977346542e-09
1.16061851e-07
-2.108914798e-09
1.164172146e-07
-2.23883444e-09
1.167866847e-07
-2.365860249e-09
1.171708235e-07
-2.488589939e-09
1.175700152e-07
-2.605460128e-09
1.179844253e-07
-2.714747453e-09
1.184139577e-07
-2.814575958e-09
1.188582121e-07
-2.902931869e-09
1.193164422e-07
-2.977686905e-09
1.197875181e-07
-3.036631105e-09
1.202698929e-07
-3.077515746e-09
1.207615799e-07
-3.098106486e-09
1.212601396e-07
-3.09624623e-09
1.217626815e-07
-3.06992647e-09
1.222658827e-07
-3.017364972e-09
1.22766024e-07
-2.937086893e-09
1.232590472e-07
-2.828005529e-09
1.237406303e-07
-2.689498172e-09
-2.521472165e-09
1.242062796e-07
1.093403306e-07
-5.651630617e-12
1.093712116e-07
-1.54166655e-11
1.094222313e-07
-2.499232974e-11
1.09492681e-07
-3.56746947e-11
1.095816184e-07
-4.859610724e-11
1.09687918e-07
-6.468628565e-11
1.098103226e-07
-8.475749028e-11
1.099474933e-07
-1.095313576e-10
1.100980592e-07
-1.396201242e-10
1.102606681e-07
-1.7551121e-10
1.104340074e-07
-2.175651748e-10
1.106168686e-07
-2.660241999e-10
1.108081534e-07
-3.210355716e-10
1.110069033e-07
-3.826631457e-10
1.112123138e-07
-4.509041744e-10
1.114237595e-07
-5.25702626e-10
1.11640774e-07
-6.069664454e-10
1.118630678e-07
-6.945747356e-10
1.120905248e-07
-7.883816257e-10
1.123231958e-07
-8.882214105e-10
1.125612916e-07
-9.939093321e-10
1.128051737e-07
-1.105241019e-09
1.130553452e-07
-1.221987681e-09
1.133124403e-07
-1.343890183e-09
1.135772095e-07
-1.4706513e-09
1.138505071e-07
-1.601924625e-09
1.14133277e-07
-1.737301392e-09
1.144265346e-07
-1.876295267e-09
1.14731348e-07
-2.018324817e-09
1.150488164e-07
-2.1626945e-09
1.153800445e-07
-2.308575171e-09
1.157261138e-07
-2.454984824e-09
1.160880492e-07
-2.600770559e-09
1.164667811e-07
-2.744592799e-09
1.168631034e-07
-2.884912604e-09
1.172776262e-07
-3.019983102e-09
1.177107251e-07
-3.14784647e-09
1.181624871e-07
-3.266338039e-09
1.186326542e-07
-3.373099193e-09
1.191205677e-07
-3.465600772e-09
1.196251148e-07
-3.541178546e-09
1.201446809e-07
-3.597081934e-09
1.20677111e-07
-3.630536591e-09
1.212196855e-07
-3.638820716e-09
1.21769113e-07
-3.619353913e-09
1.223215445e-07
-3.569796237e-09
1.228726117e-07
-3.488153735e-09
1.234174921e-07
-3.372885487e-09
1.239510001e-07
-3.22300586e-09
-3.038174518e-09
1.244677028e-07
1.09339209e-07
-1.486088482e-11
1.093666427e-07
-4.285046188e-11
1.094119642e-07
-7.031380987e-11
1.094745904e-07
-9.830070642e-11
1.095537474e-07
-1.2775292e-10
1.096485265e-07
-1.594651405e-10
1.097579192e-07
-1.941500389e-10
1.098808504e-07
-2.324623371e-10
1.100162125e-07
-2.749819819e-10
1.10162899e-07
-3.221975368e-10
1.103198391e-07
-3.745049959e-10
1.104860315e-07
-4.322164836e-10
1.10660568e-07
-4.955719957e-10
1.108426558e-07
-5.64751017e-10
1.110316351e-07
-6.398833645e-10
1.112269921e-07
-7.210595015e-10
1.114283659e-07
-8.083400534e-10
1.116355534e-07
-9.017620172e-10
1.118485129e-07
-1.001340769e-09
1.120673629e-07
-1.107071137e-09
1.122923801e-07
-1.218926334e-09
1.125239943e-07
-1.336855108e-09
1.127627829e-07
-1.460776318e-09
1.130094641e-07
-1.590571421e-09
1.132648876e-07
-1.726074871e-09
1.135300249e-07
-1.867061823e-09
1.138059566e-07
-2.013233038e-09
1.140938585e-07
-2.164197099e-09
1.143949835e-07
-2.319449908e-09
1.147106407e-07
-2.478352038e-09
1.150421697e-07
-2.640104829e-09
1.153909104e-07
-2.803726154e-09
1.15758166e-07
-2.968026812e-09
1.161451613e-07
-3.131588535e-09
1.165529931e-07
-3.292744662e-09
1.169825747e-07
-3.449564821e-09
1.174345735e-07
-3.599845384e-09
1.179093433e-07
-3.741107786e-09
1.184068511e-07
-3.870607107e-09
1.189266035e-07
-3.9853534e-09
1.194675729e-07
-4.082148181e-09
1.200281289e-07
-4.157638168e-09
1.206059801e-07
-4.208387733e-09
1.211981302e-07
-4.230970691e-09
1.21800857e-07
-4.222080683e-09
1.224097185e-07
-4.178657658e-09
1.230195907e-07
-4.098025797e-09
1.236247418e-07
-3.978036267e-09
1.242189424e-07
-3.817206131e-09
-3.614842663e-09
1.247956109e-07
1.093381722e-07
-2.303323019e-11
1.093625416e-07
-6.721962889e-11
1.094028106e-07
-1.105826286e-10
1.094584981e-07
-1.539879571e-10
1.09528973e-07
-1.98227622e-10
1.096134965e-07
-2.439885202e-10
1.097112485e-07