/*--------------------------------*- C++ -*----------------------------------*\
| =========                 |                                                 |
| \\      /  F ield         | foam-extend: Open Source CFD                    |
|  \\    /   O peration     | Version:     4.1                                |
|   \\  /    A nd           | Web:         http://www.foam-extend.org         |
|    \\/     M anipulation  |                                                 |
\*---------------------------------------------------------------------------*/
FoamFile
{
    version     2.0;
    format      ascii;
    class       volVectorField;
    location    "110000";
    object      U;
}
// * * * * * * * * * * * * * * * * * * * * * * * * * * * * * * * * * * * * * //

dimensions      [0 1 -1 0 0 0 0];

internalField   nonuniform List<vector> 
15920
(
(0.0002132427703 5.119318364e-06 0)
(0.0002058564993 1.130560779e-05 0)
(0.0001957442777 1.372307267e-05 0)
(0.0001822160362 1.420629695e-05 0)
(0.0001678071728 1.376067046e-05 0)
(0.0001541693528 1.26934698e-05 0)
(0.0001415660084 1.118897237e-05 0)
(0.0001299159134 9.470802747e-06 0)
(0.0001192935251 7.736790579e-06 0)
(0.0001098202259 6.113450171e-06 0)
(0.0001015226437 4.6690061e-06 0)
(9.434074749e-05 3.435303977e-06 0)
(8.818289146e-05 2.418901039e-06 0)
(8.295106369e-05 1.607839681e-06 0)
(7.854333728e-05 9.792102479e-07 0)
(7.485571873e-05 5.057091532e-07 0)
(7.178738259e-05 1.597816924e-07 0)
(6.924501049e-05 -8.41221931e-08 0)
(6.714464541e-05 -2.48404682e-07 0)
(6.541211633e-05 -3.51912565e-07 0)
(6.398296693e-05 -4.100326037e-07 0)
(6.280208788e-05 -4.350585799e-07 0)
(6.182306957e-05 -4.366649525e-07 0)
(6.100734747e-05 -4.22347569e-07 0)
(6.03232233e-05 -3.977690444e-07 0)
(5.974489926e-05 -3.671181786e-07 0)
(5.925157447e-05 -3.334336053e-07 0)
(5.882660997e-05 -2.9886411e-07 0)
(5.845676889e-05 -2.648721857e-07 0)
(5.813154295e-05 -2.323937642e-07 0)
(5.784257135e-05 -2.019646872e-07 0)
(5.758315007e-05 -1.738217646e-07 0)
(5.734782566e-05 -1.479837445e-07 0)
(5.71320645e-05 -1.243156479e-07 0)
(5.693198972e-05 -1.02578063e-07 0)
(5.674417873e-05 -8.246406929e-08 0)
(5.656550941e-05 -6.363536423e-08 0)
(5.639304691e-05 -4.576655448e-08 0)
(5.622396658e-05 -2.858064181e-08 0)
(5.605550208e-05 -1.185491859e-08 0)
(5.58849107e-05 4.592386012e-09 0)
(5.570945694e-05 2.091195965e-08 0)
(5.552641493e-05 3.722450853e-08 0)
(5.533308571e-05 5.36192128e-08 0)
(5.512682371e-05 7.015221307e-08 0)
(5.490506793e-05 8.684543199e-08 0)
(5.466537472e-05 1.036873612e-07 0)
(5.440544993e-05 1.206363889e-07 0)
(5.412318032e-05 1.376239806e-07 0)
(5.38166641e-05 1.545563709e-07 0)
(0.0002201181892 5.643584391e-06 0)
(0.0002251701518 1.293985826e-05 0)
(0.0002303484767 1.660520754e-05 0)
(0.0002340403677 1.854616429e-05 0)
(0.0002359657992 1.966641351e-05 0)
(0.0002363490622 2.008910134e-05 0)
(0.0002353682353 1.985905825e-05 0)
(0.0002331826504 1.911851757e-05 0)
(0.0002300201746 1.802457497e-05 0)
(0.000226141406 1.669893139e-05 0)
(0.0002217817859 1.52360172e-05 0)
(0.0002171337926 1.371556255e-05 0)
(0.0002123532604 1.220333275e-05 0)
(0.0002075657586 1.074920501e-05 0)
(0.0002028683413 9.387745328e-06 0)
(0.000198331309 8.140512162e-06 0)
(0.0001940021271 7.018530095e-06 0)
(0.0001899101742 6.024577296e-06 0)
(0.0001860709621 5.15533929e-06 0)
(0.0001824895831 4.403352612e-06 0)
(0.0001791635607 3.758621481e-06 0)
(0.0001760851704 3.209876921e-06 0)
(0.0001732432906 2.745523359e-06 0)
(0.000170624843 2.354285602e-06 0)
(0.0001682157426 2.025584796e-06 0)
(0.0001660015415 1.749796703e-06 0)
(0.0001639678962 1.518405058e-06 0)
(0.0001621008864 1.324050898e-06 0)
(0.0001603872115 1.160503225e-06 0)
(0.0001588142895 1.022581312e-06 0)
(0.0001573702903 9.06050546e-07 0)
(0.0001560441217 8.075059105e-07 0)
(0.0001548253865 7.242528156e-07 0)
(0.0001537043212 6.541921444e-07 0)
(0.000152671727 5.957136114e-07 0)
(0.0001517188988 5.475988026e-07 0)
(0.0001508375589 5.089346094e-07 0)
(0.0001500197953 4.790388939e-07 0)
(0.0001492580068 4.574002193e-07 0)
(0.0001485448563 4.436308137e-07 0)
(0.0001478732396 4.374283883e-07 0)
(0.0001472362646 4.385422454e-07 0)
(0.0001466272375 4.467426787e-07 0)
(0.0001460396539 4.617955455e-07 0)
(0.0001454671979 4.834434108e-07 0)
(0.0001449037488 5.113923749e-07 0)
(0.000144343395 5.453026438e-07 0)
(0.0001437804536 5.847838972e-07 0)
(0.0001432094946 6.293933712e-07 0)
(0.0001426253685 6.786356566e-07 0)
(0.0002187787576 1.469991805e-06 0)
(0.0002200383423 4.398602469e-06 0)
(0.0002226213816 7.035079606e-06 0)
(0.0002259646907 9.394748664e-06 0)
(0.0002295358528 1.150004618e-05 0)
(0.0002331027676 1.323544864e-05 0)
(0.0002364966927 1.450463653e-05 0)
(0.000239524065 1.530300526e-05 0)
(0.0002420351573 1.567555514e-05 0)
(0.0002439602183 1.567939656e-05 0)
(0.0002452901061 1.537714286e-05 0)
(0.000246051187 1.483664618e-05 0)
(0.0002462929331 1.41254855e-05 0)
(0.0002460800141 1.330459142e-05 0)
(0.0002454837707 1.242480685e-05 0)
(0.0002445750679 1.152625642e-05 0)
(0.0002434200014 1.063904228e-05 0)
(0.0002420778587 9.784415231e-06 0)
(0.0002406002775 8.976190428e-06 0)
(0.0002390310747 8.222265928e-06 0)
(0.0002374065735 7.526072402e-06 0)
(0.0002357562795 6.887836186e-06 0)
(0.0002341037076 6.305625372e-06 0)
(0.0002324671968 5.776166143e-06 0)
(0.0002308607373 5.29543401e-06 0)
(0.0002292947999 4.859112221e-06 0)
(0.0002277770173 4.462926941e-06 0)
(0.0002263127318 4.102865426e-06 0)
(0.0002249054478 3.775301396e-06 0)
(0.0002235572037 3.477054808e-06 0)
(0.000222268872 3.205406657e-06 0)
(0.0002210403932 2.958083386e-06 0)
(0.0002198709576 2.733221846e-06 0)
(0.0002187591449 2.52932325e-06 0)
(0.0002177030298 2.34520225e-06 0)
(0.000216700263 2.179934937e-06 0)
(0.0002157481323 2.032808289e-06 0)
(0.0002148436106 1.903273115e-06 0)
(0.0002139833927 1.790902147e-06 0)
(0.0002131639278 1.695353248e-06 0)
(0.0002123814507 1.616335658e-06 0)
(0.00021163201 1.553577872e-06 0)
(0.0002109114951 1.506797902e-06 0)
(0.0002102156625 1.475677941e-06 0)
(0.0002095401634 1.459844914e-06 0)
(0.0002088805735 1.4588558e-06 0)
(0.0002082324263 1.472186831e-06 0)
(0.0002075912488 1.499225115e-06 0)
(0.0002069525968 1.539264024e-06 0)
(0.0002063120906 1.591501862e-06 0)
(0.0002187705685 1.487578296e-06 0)
(0.0002194976647 4.329007077e-06 0)
(0.0002207748706 6.736946353e-06 0)
(0.0002224183149 8.599213417e-06 0)
(0.0002242694037 1.001075546e-05 0)
(0.0002262951093 1.107527096e-05 0)
(0.0002284904239 1.184070876e-05 0)
(0.0002307989941 1.233983621e-05 0)
(0.0002331334511 1.260994844e-05 0)
(0.0002354147728 1.268615561e-05 0)
(0.0002375817216 1.259783297e-05 0)
(0.0002395862473 1.237195348e-05 0)
(0.0002413927296 1.20353409e-05 0)
(0.0002429798105 1.161383358e-05 0)
(0.0002443399045 1.113107351e-05 0)
(0.0002454764506 1.060797535e-05 0)
(0.0002464007671 1.00625433e-05 0)
(0.0002471293771 9.509731203e-06 0)
(0.0002476818174 8.961402567e-06 0)
(0.0002480788522 8.426481501e-06 0)
(0.000248341118 7.911267024e-06 0)
(0.0002484882086 7.419831488e-06 0)
(0.0002485381261 6.954436209e-06 0)
(0.0002485070055 6.515953531e-06 0)
(0.0002484090542 6.104284018e-06 0)
(0.0002482566246 5.718685456e-06 0)
(0.0002480603418 5.358026883e-06 0)
(0.0002478292578 5.020988928e-06 0)
(0.0002475710255 4.706217514e-06 0)
(0.0002472920751 4.412434389e-06 0)
(0.000246997779 4.138509816e-06 0)
(0.0002466925964 3.883504075e-06 0)
(0.0002463801965 3.646684481e-06 0)
(0.000246063561 3.427523825e-06 0)
(0.0002457450681 3.225685437e-06 0)
(0.0002454265597 3.040999373e-06 0)
(0.0002451093959 2.873432883e-06 0)
(0.0002447944987 2.72305793e-06 0)
(0.0002444823883 2.590018099e-06 0)
(0.0002441732132 2.474496098e-06 0)
(0.0002438667782 2.376681979e-06 0)
(0.0002435625708 2.296742892e-06 0)
(0.0002432597855 2.234794272e-06 0)
(0.0002429573501 2.190873586e-06 0)
(0.0002426539524 2.16492126e-06 0)
(0.0002423480679 2.156765745e-06 0)
(0.0002420379882 2.166109764e-06 0)
(0.000241721852 2.192519266e-06 0)
(0.0002413976806 2.235417076e-06 0)
(0.0002410634131 2.294080408e-06 0)
(0.0002187114395 1.034263978e-06 0)
(0.0002191176039 3.008998969e-06 0)
(0.0002199335189 4.766586151e-06 0)
(0.0002210770929 6.248939104e-06 0)
(0.0002224135059 7.468604169e-06 0)
(0.0002238602257 8.45038242e-06 0)
(0.0002253825557 9.202013374e-06 0)
(0.0002269524236 9.73051639e-06 0)
(0.0002285371064 1.005609449e-05 0)
(0.0002301088626 1.020719203e-05 0)
(0.0002316486208 1.021233468e-05 0)
(0.0002331419124 1.009780941e-05 0)
(0.0002345760178 9.888125101e-06 0)
(0.0002359404698 9.605823286e-06 0)
(0.0002372280803 9.270829015e-06 0)
(0.0002384349513 8.900147599e-06 0)
(0.0002395599292 8.507920654e-06 0)
(0.0002406040824 8.105599114e-06 0)
(0.0002415702581 7.702144389e-06 0)
(0.0002424626228 7.304282185e-06 0)
(0.0002432861891 6.916812948e-06 0)
(0.0002440463983 6.542946668e-06 0)
(0.0002447487923 6.18463038e-06 0)
(0.0002453987752 5.842855385e-06 0)
(0.0002460014505 5.51793199e-06 0)
(0.000246561525 5.209711955e-06 0)
(0.0002470832594 4.917766432e-06 0)
(0.0002475704548 4.64153083e-06 0)
(0.0002480264662 4.380418601e-06 0)
(0.0002484542318 4.133903807e-06 0)
(0.0002488563113 3.901575715e-06 0)
(0.0002492349242 3.683170436e-06 0)
(0.000249591987 3.478584324e-06 0)
(0.0002499291453 3.28787299e-06 0)
(0.0002502478005 3.111239476e-06 0)
(0.0002505491319 2.94901476e-06 0)
(0.0002508341117 2.801632874e-06 0)
(0.0002511035167 2.669602684e-06 0)
(0.0002513579362 2.553478045e-06 0)
(0.0002515977779 2.453827438e-06 0)
(0.0002518232738 2.371203254e-06 0)
(0.0002520344841 2.306113771e-06 0)
(0.0002522313015 2.258996314e-06 0)
(0.0002524134594 2.230187328e-06 0)
(0.000252580546 2.219899741e-06 0)
(0.0002527320131 2.228205831e-06 0)
(0.0002528671873 2.255020157e-06 0)
(0.0002529852895 2.300087511e-06 0)
(0.0002530854574 2.362974525e-06 0)
(0.0002531667694 2.443064227e-06 0)
(0.0002186958764 7.904903744e-07 0)
(0.0002189834435 2.340363286e-06 0)
(0.0002195792057 3.784112297e-06 0)
(0.0002204437335 5.057794779e-06 0)
(0.000221484404 6.134989079e-06 0)
(0.0002226309217 7.013957025e-06 0)
(0.0002238449759 7.69881475e-06 0)
(0.0002250984677 8.19671773e-06 0)
(0.0002263626423 8.52173203e-06 0)
(0.0002276120899 8.693819468e-06 0)
(0.0002288291864 8.73481821e-06 0)
(0.0002300032198 8.666177555e-06 0)
(0.0002311278132 8.508522057e-06 0)
(0.0002321996343 8.2813202e-06 0)
(0.0002332179983 8.002233593e-06 0)
(0.0002341843508 7.686618009e-06 0)
(0.0002351015645 7.34738574e-06 0)
(0.0002359733547 6.995098496e-06 0)
(0.0002368038956 6.638149081e-06 0)
(0.0002375975479 6.28298917e-06 0)
(0.0002383586315 5.93439406e-06 0)
(0.0002390912473 5.595743933e-06 0)
(0.0002397991545 5.269297418e-06 0)
(0.0002404856976 4.956442611e-06 0)
(0.0002411537731 4.657919423e-06 0)
(0.000241805825 4.37401017e-06 0)
(0.0002424438632 4.104698073e-06 0)
(0.0002430694947 3.849796411e-06 0)
(0.0002436839625 3.609050526e-06 0)
(0.0002442881884 3.382214627e-06 0)
(0.0002448828163 3.169106363e-06 0)
(0.0002454682543 2.969642881e-06 0)
(0.0002460447123 2.783861404e-06 0)
(0.0002466122338 2.611926254e-06 0)
(0.0002471707228 2.454125727e-06 0)
(0.0002477199645 2.310860402e-06 0)
(0.0002482596409 2.182625383e-06 0)
(0.0002487893417 2.069987892e-06 0)
(0.0002493085721 1.973561704e-06 0)
(0.0002498167573 1.893979847e-06 0)
(0.0002503132478 1.831865439e-06 0)
(0.0002507973244 1.787803308e-06 0)
(0.0002512681942 1.762302951e-06 0)
(0.0002517249944 1.75577083e-06 0)
(0.000252166807 1.768497242e-06 0)
(0.0002525926669 1.80062665e-06 0)
(0.0002530015686 1.852130628e-06 0)
(0.0002533924826 1.922795378e-06 0)
(0.0002537643727 2.012209704e-06 0)
(0.0002541162161 2.119754689e-06 0)
(0.0002186873044 6.196524031e-07 0)
(0.0002189026897 1.840885767e-06 0)
(0.000219348998 2.993942032e-06 0)
(0.0002200074881 4.029448249e-06 0)
(0.0002208208757 4.92145893e-06 0)
(0.0002217406871 5.664145053e-06 0)
(0.0002227357749 6.259391775e-06 0)
(0.000223781355 6.711366943e-06 0)
(0.0002248525014 7.027580698e-06 0)
(0.0002259260677 7.219590272e-06 0)
(0.0002269839414 7.301488706e-06 0)
(0.0002280134533 7.288203899e-06 0)
(0.0002290061205 7.194687654e-06 0)
(0.0002299566838 7.035509894e-06 0)
(0.0002308626991 6.82440072e-06 0)
(0.0002317241431 6.573822772e-06 0)
(0.000232542844 6.294732078e-06 0)
(0.000233321897 5.996512699e-06 0)
(0.0002340651903 5.687005401e-06 0)
(0.0002347770393 5.372590631e-06 0)
(0.0002354618923 5.058317093e-06 0)
(0.0002361240995 4.748064935e-06 0)
(0.0002367677463 4.444725524e-06 0)
(0.0002373965453 4.150382073e-06 0)
(0.000238013776 3.866481402e-06 0)
(0.0002386222593 3.593990544e-06 0)
(0.0002392243577 3.33353364e-06 0)
(0.0002398219922 3.085507414e-06 0)
(0.0002404166704 2.850176305e-06 0)
(0.0002410095214 2.627748794e-06 0)
(0.0002416013329 2.418435164e-06 0)
(0.0002421925892 2.222489144e-06 0)
(0.0002427835062 2.040236093e-06 0)
(0.0002433740622 1.872087358e-06 0)
(0.0002439640266 1.718544504e-06 0)
(0.0002445529835 1.580189845e-06 0)
(0.0002451403513 1.457677816e-06 0)
(0.0002457253993 1.351717367e-06 0)
(0.0002463072618 1.263049112e-06 0)
(0.0002468849492 1.192419083e-06 0)
(0.0002474573601 1.140544223e-06 0)
(0.0002480232819 1.108119198e-06 0)
(0.0002485813972 1.095773497e-06 0)
(0.0002491303246 1.103966557e-06 0)
(0.0002496686278 1.133017592e-06 0)
(0.0002501948042 1.183109436e-06 0)
(0.0002507073131 1.254233234e-06 0)
(0.000251204609 1.346168664e-06 0)
(0.0002516851587 1.45847005e-06 0)
(0.0002521474688 1.59045149e-06 0)
(0.0002186809736 4.88998589e-07 0)
(0.0002188464007 1.454803136e-06 0)
(0.0002191913203 2.375379139e-06 0)
(0.0002197075107 3.216684363e-06 0)
(0.0002203576525 3.957174202e-06 0)
(0.0002211072414 4.587575067e-06 0)
(0.0002219313562 5.104972293e-06 0)
(0.0002228092151 5.509528831e-06 0)
(0.0002237206542 5.804566689e-06 0)
(0.0002246469827 5.996895284e-06 0)
(0.0002255727686 6.095930228e-06 0)
(0.0002264862765 6.112399922e-06 0)
(0.0002273788985 6.057486694e-06 0)
(0.0002282445843 5.942367648e-06 0)
(0.0002290795551 5.777847789e-06 0)
(0.0002298820637 5.57401527e-06 0)
(0.0002306520465 5.339994665e-06 0)
(0.0002313907254 5.083825083e-06 0)
(0.0002321002473 4.812428788e-06 0)
(0.0002327833861 4.531636413e-06 0)
(0.0002334432909 4.246254327e-06 0)
(0.0002340832746 3.96016482e-06 0)
(0.0002347066457 3.676446713e-06 0)
(0.0002353165819 3.397503672e-06 0)
(0.0002359160427 3.125190867e-06 0)
(0.0002365077111 2.860934338e-06 0)
(0.0002370939601 2.6058389e-06 0)
(0.0002376768374 2.36078196e-06 0)
(0.0002382580636 2.12649364e-06 0)
(0.0002388390389 1.903624499e-06 0)
(0.0002394208558 1.692798217e-06 0)
(0.0002400043166 1.494650521e-06 0)
(0.0002405899504 1.309854441e-06 0)
(0.0002411780289 1.139136389e-06 0)
(0.0002417685767 9.832991824e-07 0)
(0.0002423613889 8.431920036e-07 0)
(0.0002429560494 7.197151747e-07 0)
(0.0002435519361 6.138053142e-07 0)
(0.0002441482305 5.264145369e-07 0)
(0.0002447439178 4.584853552e-07 0)
(0.0002453378456 4.109295178e-07 0)
(0.0002459287379 3.84559339e-07 0)
(0.0002465150516 3.800751934e-07 0)
(0.0002470950761 3.981139849e-07 0)
(0.0002476670976 4.391442139e-07 0)
(0.0002482293082 5.034072312e-07 0)
(0.0002487797909 5.909296058e-07 0)
(0.0002493165929 7.014959822e-07 0)
(0.0002498377526 8.346291644e-07 0)
(0.0002503413227 9.89584351e-07 0)
(0.000218676695 3.870867805e-07 0)
(0.0002188082833 1.153548769e-06 0)
(0.0002190835128 1.889538722e-06 0)
(0.0002194986792 2.570368206e-06 0)
(0.0002200277917 3.17817242e-06 0)
(0.0002206460047 3.702894658e-06 0)
(0.0002213344322 4.139699465e-06 0)
(0.0002220766482 4.487064858e-06 0)
(0.0002228565931 4.746334696e-06 0)
(0.0002236591959 4.921583619e-06 0)
(0.0002244715381 5.019034296e-06 0)
(0.0002252832587 5.04623063e-06 0)
(0.0002260863402 5.011377502e-06 0)
(0.0002268747969 4.922917226e-06 0)
(0.0002276444698 4.789209177e-06 0)
(0.0002283928479 4.618245874e-06 0)
(0.0002291188355 4.417432157e-06 0)
(0.0002298224785 4.19345194e-06 0)
(0.0002305047023 3.952209937e-06 0)
(0.0002311670819 3.698824381e-06 0)
(0.0002318116431 3.437655761e-06 0)
(0.0002324406893 3.172363225e-06 0)
(0.0002330566567 2.905980793e-06 0)
(0.0002336619985 2.641004057e-06 0)
(0.0002342590965 2.379479396e-06 0)
(0.0002348501969 2.123092389e-06 0)
(0.0002354373633 1.87325155e-06 0)
(0.0002360224461 1.631163746e-06 0)
(0.0002366070657 1.397898001e-06 0)
(0.0002371926024 1.174443616e-06 0)
(0.0002377801899 9.617573311e-07 0)
(0.0002383707132 7.608041333e-07 0)
(0.0002389648101 5.725804307e-07 0)
(0.0002395628951 3.981210963e-07 0)
(0.000240165138 2.384985202e-07 0)
(0.0002407714487 9.485894015e-08 0)
(0.0002413815172 -3.16098727e-08 0)
(0.0002419947995 -1.396960041e-07 0)
(0.0002426105194 -2.281810256e-07 0)
(0.0002432276818 -2.95864873e-07 0)
(0.0002438450285 -3.415892231e-07 0)
(0.0002444610479 -3.64309927e-07 0)
(0.0002450741388 -3.63111241e-07 0)
(0.0002456825441 -3.371620863e-07 0)
(0.0002462842251 -2.858279928e-07 0)
(0.0002468769993 -2.087351682e-07 0)
(0.0002474586131 -1.057641728e-07 0)
(0.0002480267379 2.291586775e-08 0)
(0.000248579019 1.768159565e-07 0)
(0.000249112999 3.551081718e-07 0)
(0.0002186736276 3.053181101e-07 0)
(0.0002187808694 9.110464587e-07 0)
(0.000219005452 1.495450831e-06 0)
(0.0002193458862 2.040177131e-06 0)
(0.0002197834049 2.531068835e-06 0)
(0.0002202999992 2.959156266e-06 0)
(0.0002208816546 3.319324604e-06 0)
(0.000221515592 3.609183239e-06 0)
(0.0002221889426 3.828656016e-06 0)
(0.0002228894165 3.979794131e-06 0)
(0.0002236062148 4.066415612e-06 0)
(0.0002243303649 4.093591969e-06 0)
(0.0002250546441 4.0671674e-06 0)
(0.0002257734224 3.993392477e-06 0)
(0.0002264825395 3.878639366e-06 0)
(0.0002271791838 3.729161834e-06 0)
(0.0002278617321 3.550903076e-06 0)
(0.0002285295589 3.349363891e-06 0)
(0.0002291828432 3.129527966e-06 0)
(0.0002298223903 2.895830677e-06 0)
(0.0002304494724 2.652159954e-06 0)
(0.0002310656869 2.40188154e-06 0)
(0.0002316728342 2.14788402e-06 0)
(0.0002322728149 1.892636376e-06 0)
(0.0002328675475 1.638251102e-06 0)
(0.0002334589066 1.386549424e-06 0)
(0.0002340486728 1.139123057e-06 0)
(0.0002346384908 8.974041628e-07 0)
(0.0002352298433 6.6270956e-07 0)
(0.0002358240342 4.362973161e-07 0)
(0.0002364221789 2.193975522e-07 0)
(0.0002370251885 1.325047098e-08 0)
(0.0002376337392 -1.808641695e-07 0)
(0.0002382482587 -3.616081456e-07 0)
(0.0002388689624 -5.276024089e-07 0)
(0.0002394958432 -6.773999249e-07 0)
(0.0002401286176 -8.095097944e-07 0)
(0.0002407667455 -9.224127647e-07 0)
(0.0002414094269 -1.014583381e-06 0)
(0.0002420555953 -1.084518359e-06 0)
(0.0002427039144 -1.130775257e-06 0)
(0.0002433527927 -1.151972843e-06 0)
(0.0002440003937 -1.14684726e-06 0)
(0.000244644622 -1.114370559e-06 0)
(0.0002452831483 -1.053734796e-06 0)
(0.0002459134635 -9.643657814e-07 0)
(0.0002465329017 -8.459965459e-07 0)
(0.0002471386676 -6.987048668e-07 0)
(0.0002477278861 -5.229457296e-07 0)
(0.0002482977821 -3.195802262e-07 0)
(0.000218671331 2.381551522e-07 0)
(0.0002187604026 7.114824366e-07 0)
(0.000218947114 1.169728575e-06 0)
(0.0002192311842 1.599075735e-06 0)
(0.0002195985962 1.988427862e-06 0)
(0.0002200359933 2.33015106e-06 0)
(0.0002205329181 2.619305236e-06 0)
(0.0002210794738 2.853033483e-06 0)
(0.000221665392 3.030344927e-06 0)
(0.0002222806976 3.151977949e-06 0)
(0.0002229164596 3.220145654e-06 0)
(0.0002235650522 3.238182795e-06 0)
(0.0002242201304 3.210192553e-06 0)
(0.0002248765645 3.140750383e-06 0)
(0.0002255303884 3.034663813e-06 0)
(0.0002261787314 2.896772323e-06 0)
(0.0002268197129 2.731784724e-06 0)
(0.0002274523118 2.54415968e-06 0)
(0.0002280762284 2.338028991e-06 0)
(0.0002286917503 2.117156153e-06 0)
(0.0002292996268 1.884922996e-06 0)
(0.0002299009549 1.644337508e-06 0)
(0.0002304970783 1.398059937e-06 0)
(0.0002310894982 1.148432759e-06 0)
(0.0002316797975 8.975331864e-07 0)
(0.0002322695772 6.472274156e-07 0)
(0.0002328604167 3.992091672e-07 0)
(0.0002334538246 1.550342348e-07 0)
(0.0002340511995 -8.380255767e-08 0)
(0.0002346538045 -3.158411177e-07 0)
(0.0002352627332 -5.396151974e-07 0)
(0.0002358789097 -7.536304398e-07 0)
(0.0002365030713 -9.563428249e-07 0)
(0.0002371357341 -1.146133698e-06 0)
(0.0002377771711 -1.321299199e-06 0)
(0.0002384274024 -1.480085804e-06 0)
(0.0002390861785 -1.620677694e-06 0)
(0.0002397529658 -1.741212639e-06 0)
(0.0002404269308 -1.839810332e-06 0)
(0.0002411069311 -1.914603972e-06 0)
(0.0002417915064 -1.963777796e-06 0)
(0.0002424788735 -1.98560974e-06 0)
(0.000243166938 -1.97852815e-06 0)
(0.0002438533061 -1.941162559e-06 0)
(0.0002445352959 -1.872383884e-06 0)
(0.0002452099672 -1.77136413e-06 0)
(0.0002458741633 -1.637633999e-06 0)
(0.000246524558 -1.471125384e-06 0)
(0.0002471577166 -1.272208453e-06 0)
(0.0002477701748 -1.041719773e-06 0)
(0.0002186695734 1.819895631e-07 0)
(0.0002187447632 5.444052532e-07 0)
(0.0002189024861 8.961968738e-07 0)
(0.0002191431119 1.226779046e-06 0)
(0.0002194558383 1.527389623e-06 0)
(0.0002198305278 1.7916412e-06 0)
(0.0002202593271 2.015041002e-06 0)
(0.0002207346093 2.194663202e-06 0)
(0.0002212482254 2.329057612e-06 0)
(0.0002217921063 2.418160194e-06 0)
(0.0002223588972 2.463106135e-06 0)
(0.0002229421745 2.465981809e-06 0)
(0.000223536448 2.429573819e-06 0)
(0.0002241371467 2.357145282e-06 0)
(0.0002247406152 2.252243912e-06 0)
(0.0002253440835 2.118539092e-06 0)
(0.0002259456026 1.959686611e-06 0)
(0.0002265439582 1.779226862e-06 0)
(0.0002271385729 1.580515207e-06 0)
(0.0002277294093 1.366677492e-06 0)
(0.0002283168739 1.140586477e-06 0)
(0.0002289017276 9.048598136e-07 0)
(0.000229484994 6.618950283e-07 0)
(0.0002300678912 4.13858512e-07 0)
(0.000230651784 1.627166961e-07 0)
(0.0002312381038 -8.970732713e-08 0)
(0.0002318282723 -3.416940908e-07 0)
(0.0002324237029 -5.91597617e-07 0)
(0.000233025768 -8.378020719e-07 0)
(0.0002336357369 -1.07869296e-06 0)
(0.0002342547573 -1.312610775e-06 0)
(0.0002348838188 -1.53783218e-06 0)
(0.0002355237293 -1.752554482e-06 0)
(0.0002361750863 -1.954883567e-06 0)
(0.0002368382477 -2.142822346e-06 0)
(0.0002375133099 -2.314276008e-06 0)
(0.0002382000798 -2.467062141e-06 0)
(0.0002388980451 -2.59893087e-06 0)
(0.0002396063515 -2.707592907e-06 0)
(0.0002403237842 -2.790756096e-06 0)
(0.000241048752 -2.846170768e-06 0)
(0.000241779278 -2.871680177e-06 0)
(0.0002425130006 -2.865277466e-06 0)
(0.0002432471789 -2.825172949e-06 0)
(0.0002439787069 -2.749859788e-06 0)
(0.0002447041465 -2.638178126e-06 0)
(0.0002454197735 -2.489380388e-06 0)
(0.000246121631 -2.303191898e-06 0)
(0.000246805597 -2.079864551e-06 0)
(0.0002474674633 -1.820223338e-06 0)
(0.0002186681979 1.343051002e-07 0)
(0.0002187325355 4.024296134e-07 0)
(0.0002188675618 6.632010065e-07 0)
(0.0002190739958 9.083885894e-07 0)
(0.0002193433015 1.131022425e-06 0)
(0.0002196676309 1.325812206e-06 0)
(0.0002200410376 1.488811976e-06 0)
(0.0002204576376 1.617229261e-06 0)
(0.000220910962 1.709403013e-06 0)
(0.0002213944811 1.764760138e-06 0)
(0.0002219021494 1.783690368e-06 0)
(0.0002224285911 1.767375892e-06 0)
(0.0002229691146 1.717614912e-06 0)
(0.000223519723 1.63665591e-06 0)
(0.0002240771371 1.52704776e-06 0)
(0.0002246387912 1.391511155e-06 0)
(0.0002252027988 1.232819796e-06 0)
(0.0002257679001 1.053723125e-06 0)
(0.0002263333941 8.568866779e-07 0)
(0.0002268990634 6.44857102e-07 0)
(0.0002274651048 4.200227492e-07 0)
(0.0002280320922 1.846129476e-07 0)
(0.0002286008677 -5.931030048e-08 0)
(0.0002291724474 -3.098023609e-07 0)
(0.0002297480302 -5.650226393e-07 0)
(0.0002303289477 -8.232328814e-07 0)
(0.0002309165921 -1.082748278e-06 0)
(0.0002315123661 -1.341886655e-06 0)
(0.0002321176465 -1.598964461e-06 0)
(0.0002327337584 -1.852248824e-06 0)
(0.0002333619315 -2.099931123e-06 0)
(0.0002340032591 -2.340099191e-06 0)
(0.0002346586715 -2.570715567e-06 0)
(0.0002353288996 -2.789606054e-06 0)
(0.0002360144316 -2.994452913e-06 0)
(0.000236715477 -3.18279926e-06 0)
(0.0002374319305 -3.352063113e-06 0)
(0.0002381633342 -3.499558296e-06 0)
(0.0002389088412 -3.622525185e-06 0)
(0.0002396671851 -3.718172853e-06 0)
(0.0002404366539 -3.783731319e-06 0)
(0.0002412150709 -3.816512566e-06 0)
(0.0002419997859 -3.813980945e-06 0)
(0.0002427876766 -3.773831767e-06 0)
(0.0002435751628 -3.694071861e-06 0)
(0.000244358238 -3.573102193e-06 0)
(0.0002451325176 -3.409801822e-06 0)
(0.0002458933015 -3.203606787e-06 0)
(0.0002466356535 -2.954580174e-06 0)
(0.0002473544959 -2.663470996e-06 0)
(0.0002186670978 9.330417075e-08 0)
(0.0002187227713 2.802685113e-07 0)
(0.0002188396636 4.623499718e-07 0)
(0.0002190186709 6.330739782e-07 0)
(0.0002192529035 7.868509692e-07 0)
(0.0002195361762 9.193015667e-07 0)
(0.000219863942 1.027004687e-06 0)
(0.0002202316406 1.107380161e-06 0)
(0.000220634122 1.158704409e-06 0)
(0.0002210660982 1.180099913e-06 0)
(0.0002215226099 1.171455476e-06 0)
(0.000221999184 1.133310646e-06 0)
(0.0002224918509 1.066729119e-06 0)
(0.0002229971674 9.731770287e-07 0)
(0.000223512256 8.54404806e-07 0)
(0.0002240348079 7.123742039e-07 0)
(0.0002245630756 5.491160629e-07 0)
(0.0002250958556 3.666976416e-07 0)
(0.0002256324432 1.67170365e-07 0)
(0.0002261725615 -4.747726462e-08 0)
(0.0002267163106 -2.753206993e-07 0)
(0.0002272641192 -5.145110589e-07 0)
(0.0002278167194 -7.63305114e-07 0)
(0.0002283751094 -1.020009776e-06 0)
(0.0002289404448 -1.282969037e-06 0)
(0.0002295140065 -1.550564944e-06 0)
(0.0002300971861 -1.821184099e-06 0)
(0.0002306914305 -2.093183828e-06 0)
(0.0002312981973 -2.364855099e-06 0)
(0.0002319189213 -2.634391806e-06 0)
(0.0002325549714 -2.899862901e-06 0)
(0.0002332076093 -3.15918098e-06 0)
(0.0002338779474 -3.410081655e-06 0)
(0.0002345669027 -3.650112753e-06 0)
(0.0002352751478 -3.876627247e-06 0)
(0.000236003063 -4.086784566e-06 0)
(0.0002367506863 -4.277563571e-06 0)
(0.0002375176627 -4.445785935e-06 0)
(0.0002383031959 -4.588150779e-06 0)
(0.0002391060021 -4.701282119e-06 0)
(0.0002399242712 -4.781789384e-06 0)
(0.0002407556342 -4.826340247e-06 0)
(0.0002415971433 -4.831745128e-06 0)
(0.000242445265 -4.795051878e-06 0)
(0.0002432958903 -4.713647601e-06 0)
(0.0002441443637 -4.585364748e-06 0)
(0.0002449855349 -4.408587799e-06 0)
(0.0002458138312 -4.182355168e-06 0)
(0.0002466233513 -3.906451302e-06 0)
(0.0002474079785 -3.581484455e-06 0)
(0.0002186661972 5.767926909e-08 0)
(0.00021871481 1.740765378e-07 0)
(0.000218816934 2.874962503e-07 0)
(0.0002189735378 3.927816735e-07 0)
(0.0002191789488 4.854149815e-07 0)
(0.0002194282063 5.617722765e-07 0)
(0.0002197178004 6.189121271e-07 0)
(0.0002200441841 6.544930912e-07 0)
(0.0002204032478 6.668100289e-07 0)
(0.0002207907026 6.548086707e-07 0)
(0.0002212024833 6.180357018e-07 0)
(0.000221634881 5.565691598e-07 0)
(0.0002220845586 4.709225276e-07 0)
(0.0002225485772 3.619563657e-07 0)
(0.0002230244764 2.307967187e-07 0)
(0.0002235102344 7.872287923e-08 0)
(0.0002240042742 -9.283298334e-08 0)
(0.0002245055196 -2.823832312e-07 0)
(0.0002250133061 -4.884272845e-07 0)
(0.0002255273719 -7.094750877e-07 0)
(0.0002260478364 -9.440444857e-07 0)
(0.0002265751287 -1.190677092e-06 0)
(0.0002271099665 -1.447925041e-06 0)
(0.0002276533221 -1.714368631e-06 0)
(0.0002282063604 -1.988595546e-06 0)
(0.0002287704131 -2.269159568e-06 0)
(0.0002293469484 -2.554562097e-06 0)
(0.0002299375229 -2.84322466e-06 0)
(0.0002305437398 -3.133452304e-06 0)
(0.000231167211 -3.423400641e-06 0)
(0.0002318095141 -3.711043535e-06 0)
(0.0002324721435 -3.9941434e-06 0)
(0.0002331564598 -4.270227601e-06 0)
(0.0002338636375 -4.536571191e-06 0)
(0.0002345946071 -4.790186665e-06 0)
(0.0002353499931 -5.027823333e-06 0)
(0.0002361300504 -5.24597831e-06 0)
(0.0002369345986 -5.440919928e-06 0)
(0.0002377629569 -5.608725123e-06 0)
(0.0002386138801 -5.745332405e-06 0)
(0.0002394855017 -5.846611267e-06 0)
(0.0002403752845 -5.908448074e-06 0)
(0.0002412799849 -5.926847866e-06 0)
(0.0002421956337 -5.898050519e-06 0)
(0.0002431175379 -5.818658155e-06 0)
(0.0002440403062 -5.685769797e-06 0)
(0.0002449579029 -5.497118261e-06 0)
(0.0002458637309 -5.25120303e-06 0)
(0.0002467507422 -4.947412076e-06 0)
(0.0002476115754 -4.586125993e-06 0)
(0.0002186654499 2.640757709e-08 0)
(0.0002187081941 8.092141027e-08 0)
(0.000218798026 1.340279206e-07 0)
(0.0002189359429 1.815302566e-07 0)
(0.0002191172289 2.197154668e-07 0)
(0.0002193378532 2.455563566e-07 0)
(0.0002195950639 2.565236734e-07 0)
(0.0002198860655 2.505182886e-07 0)
(0.0002202075562 2.259075608e-07 0)
(0.0002205560484 1.815486218e-07 0)
(0.0002209282188 1.167681055e-07 0)
(0.0002213210121 3.12995979e-08 0)
(0.0002217316449 -7.476656618e-08 0)
(0.0002221576515 -2.010481616e-07 0)
(0.0002225968904 -3.469339394e-07 0)
(0.0002230476409 -5.116756292e-07 0)
(0.0002235086069 -6.943720244e-07 0)
(0.0002239788398 -8.940521202e-07 0)
(0.0002244577833 -1.109703884e-06 0)
(0.0002249452611 -1.340277423e-06 0)
(0.0002254414405 -1.584712026e-06 0)
(0.0002259468003 -1.841934773e-06 0)
(0.0002264621062 -2.11084736e-06 0)
(0.0002269883847 -2.390326921e-06 0)
(0.0002275268891 -2.679202741e-06 0)
(0.0002280790658 -2.97622907e-06 0)
(0.0002286465209 -3.280062571e-06 0)
(0.0002292309847 -3.589231331e-06 0)
(0.0002298342717 -3.902097245e-06 0)
(0.0002304582406 -4.216818362e-06 0)
(0.0002311047475 -4.531312925e-06 0)
(0.000231775595 -4.84322474e-06 0)
(0.0002324724763 -5.149892198e-06 0)
(0.0002331969131 -5.448324429e-06 0)
(0.0002339501863 -5.735185871e-06 0)
(0.0002347332611 -6.006790566e-06 0)
(0.0002355467076 -6.259108832e-06 0)
(0.0002363906166 -6.487788762e-06 0)
(0.0002372645135 -6.688194501e-06 0)
(0.0002381672735 -6.855463588e-06 0)
(0.0002390970406 -6.984585262e-06 0)
(0.0002400511561 -7.070500736e-06 0)
(0.0002410261006 -7.108225258e-06 0)
(0.0002420174567 -7.092990296e-06 0)
(0.0002430198973 -7.020402637e-06 0)
(0.0002440272031 -6.886615598e-06 0)
(0.0002450323173 -6.688506051e-06 0)
(0.0002460274376 -6.423848811e-06 0)
(0.0002470041494 -6.091478791e-06 0)
(0.0002479535934 -5.691431103e-06 0)
(0.0002186648536 -1.15012455e-09 0)
(0.0002187027362 -1.235989072e-09 0)
(0.0002187822043 -1.496863195e-09 0)
(0.0002189042546 -5.382194363e-09 0)
(0.0002190649393 -1.595454263e-08 0)
(0.0002192609514 -3.572382268e-08 0)
(0.0002194901284 -6.68528732e-08 0)