/*--------------------------------*- C++ -*----------------------------------*\
| =========                 |                                                 |
| \\      /  F ield         | foam-extend: Open Source CFD                    |
|  \\    /   O peration     | Version:     4.1                                |
|   \\  /    A nd           | Web:         http://www.foam-extend.org         |
|    \\/     M anipulation  |                                                 |
\*---------------------------------------------------------------------------*/
FoamFile
{
    version     2.0;
    format      ascii;
    class       volVectorField;
    location    "110000";
    object      vorticity;
}
// * * * * * * * * * * * * * * * * * * * * * * * * * * * * * * * * * * * * * //

dimensions      [0 0 -1 0 0 0 0];

internalField   nonuniform List<vector> 
15920
(
(0 -0 -0.008256596037)
(0 -0 -0.008405439165)
(0 -0 -0.008449337859)
(0 -0 -0.008324188134)
(0 -0 -0.00811328012)
(0 -0 -0.007874660753)
(0 -0 -0.007619251551)
(0 -0 -0.00734827582)
(0 -0 -0.007070207809)
(0 -0 -0.006795927249)
(0 -0 -0.006533042247)
(0 -0 -0.006285743428)
(0 -0 -0.006056409645)
(0 -0 -0.005846328716)
(0 -0 -0.005655786834)
(0 -0 -0.005484226269)
(0 -0 -0.005330535978)
(0 -0 -0.005193308353)
(0 -0 -0.005071006909)
(0 -0 -0.004962074687)
(0 -0 -0.004865009202)
(0 -0 -0.004778410973)
(0 -0 -0.004701009428)
(0 -0 -0.004631671412)
(0 -0 -0.004569398582)
(0 -0 -0.00451332043)
(0 -0 -0.004462683061)
(0 -0 -0.004416835893)
(0 -0 -0.004375217849)
(0 -0 -0.004337343962)
(0 -0 -0.004302792933)
(0 -0 -0.004271195912)
(0 -0 -0.00424222659)
(0 -0 -0.004215592572)
(0 -0 -0.004191028045)
(0 -0 -0.004168287983)
(0 -0 -0.004147143927)
(0 -0 -0.004127380477)
(0 -0 -0.004108791676)
(0 -0 -0.004091177842)
(0 -0 -0.004074343834)
(0 -0 -0.004058098628)
(0 -0 -0.004042255367)
(0 -0 -0.004026631599)
(0 -0 -0.004011049777)
(0 -0 -0.003995337956)
(0 -0 -0.00397933062)
(0 -0 -0.003962869655)
(0 -0 -0.003945805499)
(0 -0 -0.003927998357)
(0 -0 0.0003538663208)
(0 -0 -9.596281497e-06)
(0 -0 -0.0003973844267)
(0 -0 -0.0007984429395)
(0 -0 -0.001196000174)
(0 -0 -0.001573852176)
(0 -0 -0.001922878281)
(0 -0 -0.002238025115)
(0 -0 -0.002515322297)
(0 -0 -0.002752513793)
(0 -0 -0.002949933469)
(0 -0 -0.003110025902)
(0 -0 -0.003236359772)
(0 -0 -0.003332968693)
(0 -0 -0.003404025989)
(0 -0 -0.003453617365)
(0 -0 -0.003485550747)
(0 -0 -0.003503236734)
(0 -0 -0.003509643259)
(0 -0 -0.003507297113)
(0 -0 -0.003498309024)
(0 -0 -0.003484411286)
(0 -0 -0.003467002544)
(0 -0 -0.003447195451)
(0 -0 -0.003425862503)
(0 -0 -0.003403677506)
(0 -0 -0.003381152502)
(0 -0 -0.003358669983)
(0 -0 -0.003336510317)
(0 -0 -0.003314874532)
(0 -0 -0.003293902898)
(0 -0 -0.003273689805)
(0 -0 -0.003254295483)
(0 -0 -0.003235755088)
(0 -0 -0.003218085636)
(0 -0 -0.00320129116)
(0 -0 -0.003185366456)
(0 -0 -0.003170299634)
(0 -0 -0.003156073723)
(0 -0 -0.003142667811)
(0 -0 -0.003130058014)
(0 -0 -0.003118218203)
(0 -0 -0.00310712027)
(0 -0 -0.003096734017)
(0 -0 -0.003087026873)
(0 -0 -0.00307796363)
(0 -0 -0.003069506243)
(0 -0 -0.00306161371)
(0 -0 -0.003054242035)
(0 -0 -0.003047344262)
(0 -0 0.0001736672709)
(0 -0 0.0002525769373)
(0 -0 0.0003163757772)
(0 -0 0.0003440652201)
(0 -0 0.0003299454102)
(0 -0 0.0002761938181)
(0 -0 0.000189245144)
(0 -0 7.69460907e-05)
(0 -0 -5.285574722e-05)
(0 -0 -0.0001929276432)
(0 -0 -0.000337067473)
(0 -0 -0.0004803405281)
(0 -0 -0.0006190907534)
(0 -0 -0.0007507980041)
(0 -0 -0.0008738896393)
(0 -0 -0.0009875469448)
(0 -0 -0.00109151883)
(0 -0 -0.001185955354)
(0 -0 -0.001271270839)
(0 -0 -0.001348038332)
(0 -0 -0.00141691189)
(0 -0 -0.001478571941)
(0 -0 -0.00153368846)
(0 -0 -0.001582898033)
(0 -0 -0.00162679258)
(0 -0 -0.001665914338)
(0 -0 -0.001700755082)
(0 -0 -0.001731758066)
(0 -0 -0.001759321545)
(0 -0 -0.00178380308)
(0 -0 -0.001805524059)
(0 -0 -0.001824774113)
(0 -0 -0.001841815203)
(0 -0 -0.001856885286)
(0 -0 -0.001870201531)
(0 -0 -0.001881963067)
(0 -0 -0.001892353286)
(0 -0 -0.001901541721)
(0 -0 -0.001909685627)
(0 -0 -0.0019169313)
(0 -0 -0.001923415157)
(0 -0 -0.001929264567)
(0 -0 -0.001934598459)
(0 -0 -0.001939527749)
(0 -0 -0.001944155644)
(0 -0 -0.001948577834)
(0 -0 -0.001952882631)
(0 -0 -0.001957151039)
(0 -0 -0.001961456802)
(0 -0 -0.00196586642)
(0 -0 0.0001467609968)
(0 -0 0.0001496489694)
(0 -0 0.0001605124115)
(0 -0 0.0001795971827)
(0 -0 0.0002043483778)
(0 -0 0.0002305996702)
(0 -0 0.0002538968708)
(0 -0 0.0002706638199)
(0 -0 0.0002786190022)
(0 -0 0.0002767242268)
(0 -0 0.0002649746533)
(0 -0 0.000244123191)
(0 -0 0.0002153853086)
(0 -0 0.0001801842012)
(0 -0 0.0001399673514)
(0 -0 9.608907813e-05)
(0 -0 4.974533897e-05)
(0 -0 1.947008337e-06)
(0 -0 -4.648085551e-05)
(0 -0 -9.488435007e-05)
(0 -0 -0.000142758562)
(0 -0 -0.0001897231453)
(0 -0 -0.0002354986432)
(0 -0 -0.0002798853718)
(0 -0 -0.0003227459656)
(0 -0 -0.0003639909301)
(0 -0 -0.000403567254)
(0 -0 -0.0004414496936)
(0 -0 -0.0004776342323)
(0 -0 -0.000512133255)
(0 -0 -0.0005449720437)
(0 -0 -0.0005761862545)
(0 -0 -0.000605820095)
(0 -0 -0.0006339249835)
(0 -0 -0.0006605585254)
(0 -0 -0.0006857836928)
(0 -0 -0.0007096681238)
(0 -0 -0.0007322834916)
(0 -0 -0.0007537049171)
(0 -0 -0.0007740104055)
(0 -0 -0.000793280291)
(0 -0 -0.0008115966757)
(0 -0 -0.0008290428604)
(0 -0 -0.0008457027632)
(0 -0 -0.0008616603481)
(0 -0 -0.0008769990802)
(0 -0 -0.0008918013829)
(0 -0 -0.0009061481316)
(0 -0 -0.0009201181848)
(0 -0 -0.0009337879543)
(0 -0 0.0001025754157)
(0 -0 0.000103592478)
(0 -0 0.0001049118014)
(0 -0 0.0001070420787)
(0 -0 0.0001107360765)
(0 -0 0.0001166189814)
(0 -0 0.0001249123098)
(0 -0 0.0001353625559)
(0 -0 0.0001473330678)
(0 -0 0.0001599596625)
(0 -0 0.0001723161396)
(0 -0 0.0001835553099)
(0 -0 0.0001929986756)
(0 -0 0.0002001711208)
(0 -0 0.0002047962313)
(0 -0 0.0002067692858)
(0 -0 0.0002061203396)
(0 -0 0.0002029760414)
(0 -0 0.0001975255115)
(0 -0 0.0001899928005)
(0 -0 0.0001806163426)
(0 -0 0.0001696346614)
(0 -0 0.0001572771494)
(0 -0 0.0001437586979)
(0 -0 0.0001292770354)
(0 -0 0.0001140118525)
(0 -0 9.812504368e-05)
(0 -0 8.176156702e-05)
(0 -0 6.505058391e-05)
(0 -0 4.810666189e-05)
(0 -0 3.103091981e-05)
(0 -0 1.391205632e-05)
(0 -0 -3.172752609e-06)
(0 -0 -2.015707624e-05)
(0 -0 -3.698454899e-05)
(0 -0 -5.360826193e-05)
(0 -0 -6.999020328e-05)
(0 -0 -8.610072996e-05)
(0 -0 -0.0001019180569)
(0 -0 -0.0001174277527)
(0 -0 -0.0001326222326)
(0 -0 -0.000147500245)
(0 -0 -0.0001620663361)
(0 -0 -0.0001763303001)
(0 -0 -0.0001903066296)
(0 -0 -0.0002040139685)
(0 -0 -0.0002174745668)
(0 -0 -0.0002307137534)
(0 -0 -0.000243759423)
(0 -0 -0.0002566415416)
(0 -0 7.875404255e-05)
(0 -0 7.913883262e-05)
(0 -0 7.962620667e-05)
(0 -0 8.016401702e-05)
(0 -0 8.075665899e-05)
(0 -0 8.148641351e-05)
(0 -0 8.250463424e-05)
(0 -0 8.399430388e-05)
(0 -0 8.611964379e-05)
(0 -0 8.89830527e-05)
(0 -0 9.260253955e-05)
(0 -0 9.691177814e-05)
(0 -0 0.0001017765125)
(0 -0 0.0001070185089)
(0 -0 0.00011244007)
(0 -0 0.000117844968)
(0 -0 0.000123053717)
(0 -0 0.0001279127904)
(0 -0 0.0001322986228)
(0 -0 0.0001361177951)
(0 -0 0.0001393048058)
(0 -0 0.000141818559)
(0 -0 0.0001436383881)
(0 -0 0.0001447601475)
(0 -0 0.000145192679)
(0 -0 0.0001449547794)
(0 -0 0.0001440726887)
(0 -0 0.0001425780644)
(0 -0 0.0001405063708)
(0 -0 0.0001378956043)
(0 -0 0.0001347852745)
(0 -0 0.0001312155758)
(0 -0 0.0001272267018)
(0 -0 0.0001228582698)
(0 -0 0.0001181488316)
(0 -0 0.0001131354593)
(0 -0 0.000107853395)
(0 -0 0.0001023357558)
(0 -0 9.661328747e-05)
(0 -0 9.071416887e-05)
(0 -0 8.466385928e-05)
(0 -0 7.84849827e-05)
(0 -0 7.219727314e-05)
(0 -0 6.581755245e-05)
(0 -0 5.935975922e-05)
(0 -0 5.283501368e-05)
(0 -0 4.625170144e-05)
(0 -0 3.961558813e-05)
(0 -0 3.292995799e-05)
(0 -0 2.619576548e-05)
(0 -0 6.181151083e-05)
(0 -0 6.209809747e-05)
(0 -0 6.24717693e-05)
(0 -0 6.291237745e-05)
(0 -0 6.340245056e-05)
(0 -0 6.392192635e-05)
(0 -0 6.445294152e-05)
(0 -0 6.498977593e-05)
(0 -0 6.554534464e-05)
(0 -0 6.614984429e-05)
(0 -0 6.684369693e-05)
(0 -0 6.766884026e-05)
(0 -0 6.866094389e-05)
(0 -0 6.984382763e-05)
(0 -0 7.122668517e-05)
(0 -0 7.280402586e-05)
(0 -0 7.455760831e-05)
(0 -0 7.645941944e-05)
(0 -0 7.847491554e-05)
(0 -0 8.056602718e-05)
(0 -0 8.269366907e-05)
(0 -0 8.481966494e-05)
(0 -0 8.690810461e-05)
(0 -0 8.892621088e-05)
(0 -0 9.084482073e-05)
(0 -0 9.263858578e-05)
(0 -0 9.428598359e-05)
(0 -0 9.57692116e-05)
(0 -0 9.707401259e-05)
(0 -0 9.818946013e-05)
(0 -0 9.910771731e-05)
(0 -0 9.982377694e-05)
(0 -0 0.0001003351923)
(0 -0 0.0001006418073)
(0 -0 0.0001007454843)
(0 -0 0.0001006498451)
(0 -0 0.0001003600185)
(0 -0 9.988239424e-05)
(0 -0 9.92243743e-05)
(0 -0 9.839416802e-05)
(0 -0 9.740054595e-05)
(0 -0 9.625246194e-05)
(0 -0 9.495903618e-05)
(0 -0 9.352946895e-05)
(0 -0 9.197276152e-05)
(0 -0 9.029756485e-05)
(0 -0 8.85120342e-05)
(0 -0 8.66237156e-05)
(0 -0 8.463947099e-05)
(0 -0 8.256540908e-05)
(0 -0 4.880723074e-05)
(0 -0 4.904764109e-05)
(0 -0 4.935673369e-05)
(0 -0 4.972105294e-05)
(0 -0 5.013394757e-05)
(0 -0 5.058860101e-05)
(0 -0 5.10756978e-05)
(0 -0 5.158399528e-05)
(0 -0 5.210232702e-05)
(0 -0 5.262152468e-05)
(0 -0 5.313568223e-05)
(0 -0 5.364280428e-05)
(0 -0 5.414479952e-05)
(0 -0 5.464676476e-05)
(0 -0 5.515577684e-05)
(0 -0 5.567957431e-05)
(0 -0 5.622541474e-05)
(0 -0 5.67992227e-05)
(0 -0 5.740504407e-05)
(0 -0 5.804478511e-05)
(0 -0 5.871819283e-05)
(0 -0 5.942301384e-05)
(0 -0 6.015526263e-05)
(0 -0 6.090953934e-05)
(0 -0 6.167935599e-05)
(0 -0 6.245745017e-05)
(0 -0 6.323607898e-05)
(0 -0 6.400728914e-05)
(0 -0 6.476315761e-05)
(0 -0 6.549599559e-05)
(0 -0 6.619851062e-05)
(0 -0 6.686392577e-05)
(0 -0 6.748606811e-05)
(0 -0 6.80594599e-05)
(0 -0 6.857916231e-05)
(0 -0 6.904109657e-05)
(0 -0 6.94420158e-05)
(0 -0 6.977948109e-05)
(0 -0 7.005184821e-05)
(0 -0 7.025822144e-05)
(0 -0 7.039848153e-05)
(0 -0 7.04733219e-05)
(0 -0 7.048403466e-05)
(0 -0 7.043233479e-05)
(0 -0 7.032038606e-05)
(0 -0 7.015073251e-05)
(0 -0 6.992622044e-05)
(0 -0 6.964991089e-05)
(0 -0 6.932500364e-05)
(0 -0 6.895479262e-05)
(0 -0 3.866280815e-05)
(0 -0 3.887192493e-05)
(0 -0 3.913785336e-05)
(0 -0 3.944833328e-05)
(0 -0 3.979811305e-05)
(0 -0 4.01830202e-05)
(0 -0 4.059828628e-05)
(0 -0 4.103834314e-05)
(0 -0 4.14972005e-05)
(0 -0 4.1968814e-05)
(0 -0 4.244725067e-05)
(0 -0 4.292681277e-05)
(0 -0 4.340225191e-05)
(0 -0 4.386902933e-05)
(0 -0 4.432352818e-05)
(0 -0 4.476317216e-05)
(0 -0 4.518644003e-05)
(0 -0 4.559277342e-05)
(0 -0 4.5982393e-05)
(0 -0 4.635606122e-05)
(0 -0 4.671484042e-05)
(0 -0 4.705988052e-05)
(0 -0 4.739224927e-05)
(0 -0 4.771280534e-05)
(0 -0 4.802211223e-05)
(0 -0 4.832039344e-05)
(0 -0 4.860753023e-05)
(0 -0 4.888309426e-05)
(0 -0 4.91464017e-05)
(0 -0 4.939657858e-05)
(0 -0 4.963255171e-05)
(0 -0 4.985313958e-05)
(0 -0 5.0057149e-05)
(0 -0 5.024335638e-05)
(0 -0 5.041073252e-05)
(0 -0 5.055820527e-05)
(0 -0 5.068476192e-05)
(0 -0 5.078953252e-05)
(0 -0 5.087185e-05)
(0 -0 5.093124573e-05)
(0 -0 5.096749769e-05)
(0 -0 5.098085268e-05)
(0 -0 5.097185455e-05)
(0 -0 5.094116332e-05)
(0 -0 5.088965916e-05)
(0 -0 5.081848916e-05)
(0 -0 5.072906105e-05)
(0 -0 5.062300939e-05)
(0 -0 5.050213812e-05)
(0 -0 5.036840112e-05)
(0 -0 3.051639602e-05)
(0 -0 3.071093237e-05)
(0 -0 3.095624319e-05)
(0 -0 3.124035005e-05)
(0 -0 3.155838835e-05)
(0 -0 3.190662095e-05)
(0 -0 3.228095596e-05)
(0 -0 3.267677449e-05)
(0 -0 3.30892949e-05)
(0 -0 3.351395691e-05)
(0 -0 3.394651608e-05)
(0 -0 3.438292442e-05)
(0 -0 3.481920777e-05)
(0 -0 3.525144777e-05)
(0 -0 3.567586022e-05)
(0 -0 3.608892271e-05)
(0 -0 3.648750436e-05)
(0 -0 3.686895714e-05)
(0 -0 3.723114752e-05)
(0 -0 3.757243196e-05)
(0 -0 3.78915978e-05)
(0 -0 3.818779061e-05)
(0 -0 3.846043929e-05)
(0 -0 3.870918332e-05)
(0 -0 3.893380758e-05)
(0 -0 3.913419294e-05)
(0 -0 3.931029986e-05)
(0 -0 3.94620933e-05)
(0 -0 3.958965249e-05)
(0 -0 3.969315628e-05)
(0 -0 3.977296239e-05)
(0 -0 3.98295263e-05)
(0 -0 3.98633105e-05)
(0 -0 3.98747643e-05)
(0 -0 3.986454399e-05)
(0 -0 3.983324141e-05)
(0 -0 3.978145162e-05)
(0 -0 3.970983405e-05)
(0 -0 3.961913305e-05)
(0 -0 3.951021742e-05)
(0 -0 3.938408033e-05)
(0 -0 3.924168731e-05)
(0 -0 3.908407312e-05)
(0 -0 3.891257165e-05)
(0 -0 3.872870221e-05)
(0 -0 3.853409742e-05)
(0 -0 3.833051827e-05)
(0 -0 3.811986806e-05)
(0 -0 3.790416233e-05)
(0 -0 3.768544271e-05)
(0 -0 2.382202393e-05)
(0 -0 2.401145906e-05)
(0 -0 2.424915026e-05)
(0 -0 2.452296844e-05)
(0 -0 2.482821455e-05)
(0 -0 2.516136354e-05)
(0 -0 2.551861121e-05)
(0 -0 2.589564671e-05)
(0 -0 2.628795562e-05)
(0 -0 2.669122187e-05)
(0 -0 2.710147265e-05)
(0 -0 2.751497901e-05)
(0 -0 2.792811352e-05)
(0 -0 2.83372955e-05)
(0 -0 2.873903486e-05)
(0 -0 2.91300304e-05)
(0 -0 2.95072737e-05)
(0 -0 2.986812144e-05)
(0 -0 3.021031743e-05)
(0 -0 3.053197016e-05)
(0 -0 3.083150493e-05)
(0 -0 3.110761026e-05)
(0 -0 3.135918646e-05)
(0 -0 3.158530589e-05)
(0 -0 3.178513553e-05)
(0 -0 3.195795569e-05)
(0 -0 3.210317977e-05)
(0 -0 3.222046489e-05)
(0 -0 3.230962282e-05)
(0 -0 3.23706295e-05)
(0 -0 3.240369872e-05)
(0 -0 3.240920429e-05)
(0 -0 3.238761671e-05)
(0 -0 3.233953898e-05)
(0 -0 3.22654911e-05)
(0 -0 3.216620326e-05)
(0 -0 3.204258465e-05)
(0 -0 3.18956915e-05)
(0 -0 3.172672537e-05)
(0 -0 3.153703444e-05)
(0 -0 3.132810378e-05)
(0 -0 3.11015355e-05)
(0 -0 3.085904217e-05)
(0 -0 3.060246756e-05)
(0 -0 3.033378761e-05)
(0 -0 3.005508644e-05)
(0 -0 2.976853247e-05)
(0 -0 2.947637083e-05)
(0 -0 2.918092306e-05)
(0 -0 2.888457288e-05)
(0 -0 1.822253115e-05)
(0 -0 1.8412526e-05)
(0 -0 1.865038935e-05)
(0 -0 1.892358781e-05)
(0 -0 1.922744859e-05)
(0 -0 1.955853255e-05)
(0 -0 1.991315993e-05)
(0 -0 2.028713776e-05)
(0 -0 2.067602452e-05)
(0 -0 2.107554267e-05)
(0 -0 2.148174463e-05)
(0 -0 2.189091286e-05)
(0 -0 2.229940313e-05)
(0 -0 2.270358105e-05)
(0 -0 2.309987151e-05)
(0 -0 2.348487289e-05)
(0 -0 2.385547648e-05)
(0 -0 2.420894834e-05)
(0 -0 2.454295217e-05)
(0 -0 2.485552032e-05)
(0 -0 2.514499845e-05)
(0 -0 2.54099674e-05)
(0 -0 2.564917921e-05)
(0 -0 2.586155734e-05)
(0 -0 2.604619878e-05)
(0 -0 2.620231868e-05)
(0 -0 2.632923548e-05)
(0 -0 2.642647058e-05)
(0 -0 2.649367768e-05)
(0 -0 2.653070606e-05)
(0 -0 2.653755394e-05)
(0 -0 2.65144208e-05)
(0 -0 2.646171078e-05)
(0 -0 2.637999291e-05)
(0 -0 2.62699785e-05)
(0 -0 2.6132513e-05)
(0 -0 2.596858906e-05)
(0 -0 2.577936329e-05)
(0 -0 2.556616134e-05)
(0 -0 2.533047363e-05)
(0 -0 2.507394885e-05)
(0 -0 2.479838552e-05)
(0 -0 2.450572143e-05)
(0 -0 2.419803199e-05)
(0 -0 2.387753356e-05)
(0 -0 2.354656859e-05)
(0 -0 2.320756951e-05)
(0 -0 2.286302632e-05)
(0 -0 2.251547648e-05)
(0 -0 2.216749915e-05)
(0 -0 1.346788051e-05)
(0 -0 1.366223473e-05)
(0 -0 1.390542492e-05)
(0 -0 1.418435632e-05)
(0 -0 1.44942875e-05)
(0 -0 1.483177014e-05)
(0 -0 1.519312753e-05)
(0 -0 1.557414987e-05)
(0 -0 1.597034019e-05)
(0 -0 1.637734543e-05)
(0 -0 1.679114087e-05)
(0 -0 1.720792453e-05)
(0 -0 1.762394121e-05)
(0 -0 1.803540759e-05)
(0 -0 1.843856585e-05)
(0 -0 1.882981305e-05)
(0 -0 1.920583934e-05)
(0 -0 1.95637228e-05)
(0 -0 1.990094327e-05)
(0 -0 2.021535836e-05)
(0 -0 2.050516096e-05)
(0 -0 2.076883984e-05)
(0 -0 2.10051084e-05)
(0 -0 2.121282779e-05)
(0 -0 2.139102215e-05)
(0 -0 2.153880519e-05)
(0 -0 2.165537928e-05)
(0 -0 2.174004363e-05)
(0 -0 2.179235988e-05)
(0 -0 2.181214493e-05)
(0 -0 2.179945789e-05)
(0 -0 2.175457829e-05)
(0 -0 2.167796655e-05)
(0 -0 2.157023926e-05)
(0 -0 2.14321666e-05)
(0 -0 2.126468225e-05)
(0 -0 2.106889569e-05)
(0 -0 2.084609634e-05)
(0 -0 2.05977488e-05)
(0 -0 2.032548845e-05)
(0 -0 2.003112317e-05)
(0 -0 1.971663418e-05)
(0 -0 1.938416524e-05)
(0 -0 1.903600453e-05)
(0 -0 1.867457165e-05)
(0 -0 1.830240794e-05)
(0 -0 1.792215703e-05)
(0 -0 1.753653554e-05)
(0 -0 1.714830864e-05)
(0 -0 1.676026538e-05)
(0 -0 9.379330685e-06)
(0 -0 9.580655249e-06)
(0 -0 9.832691636e-06)
(0 -0 1.012168459e-05)
(0 -0 1.044274407e-05)
(0 -0 1.079233556e-05)
(0 -0 1.116670849e-05)
(0 -0 1.156156417e-05)
(0 -0 1.197227847e-05)
(0 -0 1.239434666e-05)
(0 -0 1.282358863e-05)
(0 -0 1.325604366e-05)
(0 -0 1.368778007e-05)
(0 -0 1.411480941e-05)
(0 -0 1.453314312e-05)
(0 -0 1.493891675e-05)
(0 -0 1.532857735e-05)
(0 -0 1.569896836e-05)
(0 -0 1.604738788e-05)
(0 -0 1.637155408e-05)
(0 -0 1.666952297e-05)
(0 -0 1.693965997e-05)
(0 -0 1.71805558e-05)
(0 -0 1.73909091e-05)
(0 -0 1.756951792e-05)
(0 -0 1.77153154e-05)
(0 -0 1.782740131e-05)
(0 -0 1.790508825e-05)
(0 -0 1.794793383e-05)
(0 -0 1.795575219e-05)
(0 -0 1.792861766e-05)
(0 -0 1.786684272e-05)
(0 -0 1.777094062e-05)
(0 -0 1.764160221e-05)
(0 -0 1.747969459e-05)
(0 -0 1.728626912e-05)
(0 -0 1.706256878e-05)
(0 -0 1.681003036e-05)
(0 -0 1.653028106e-05)
(0 -0 1.622513415e-05)
(0 -0 1.589658932e-05)
(0 -0 1.554683358e-05)
(0 -0 1.51782308e-05)
(0 -0 1.47932968e-05)
(0 -0 1.439467614e-05)
(0 -0 1.398513223e-05)
(0 -0 1.356753378e-05)
(0 -0 1.314482422e-05)
(0 -0 1.271999402e-05)
(0 -0 1.229606082e-05)
(0 -0 5.826852942e-06)
(0 -0 6.036969801e-06)
(0 -0 6.300380397e-06)
(0 -0 6.602528294e-06)
(0 -0 6.9382572e-06)
(0 -0 7.303888371e-06)
(0 -0 7.695582907e-06)
(0 -0 8.108948516e-06)
(0 -0 8.539205509e-06)
(0 -0 8.981637793e-06)
(0 -0 9.43183403e-06)
(0 -0 9.885608186e-06)
(0 -0 1.033879974e-05)
(0 -0 1.078717329e-05)
(0 -0 1.122647556e-05)
(0 -0 1.165259704e-05)
(0 -0 1.206172145e-05)
(0 -0 1.245045846e-05)
(0 -0 1.281590196e-05)
(0 -0 1.315557892e-05)
(0 -0 1.346735289e-05)
(0 -0 1.374936539e-05)
(0 -0 1.399997553e-05)
(0 -0 1.421773077e-05)
(0 -0 1.440133953e-05)
(0 -0 1.454965015e-05)
(0 -0 1.466167714e-05)
(0 -0 1.47366606e-05)
(0 -0 1.477411175e-05)
(0 -0 1.477383276e-05)
(0 -0 1.473590956e-05)
(0 -0 1.466068459e-05)
(0 -0 1.454872715e-05)
(0 -0 1.440081506e-05)
(0 -0 1.421792812e-05)
(0 -0 1.400124748e-05)
(0 -0 1.375215782e-05)
(0 -0 1.347225206e-05)
(0 -0 1.316333479e-05)
(0 -0 1.282741957e-05)
(0 -0 1.246672121e-05)
(0 -0 1.208364856e-05)
(0 -0 1.168079392e-05)
(0 -0 1.126090929e-05)
(0 -0 1.082687874e-05)
(0 -0 1.038170811e-05)
(0 -0 9.92852167e-06)
(0 -0 9.470528005e-06)
(0 -0 9.01096286e-06)
(0 -0 8.553057563e-06)
(0 -0 2.710097689e-06)
(0 -0 2.931983054e-06)
(0 -0 3.209814797e-06)
(0 -0 3.527852653e-06)
(0 -0 3.880841834e-06)
(0 -0 4.265302032e-06)
(0 -0 4.677489087e-06)
(0 -0 5.112891266e-06)
(0 -0 5.566458514e-06)
(0 -0 6.033165367e-06)
(0 -0 6.508327525e-06)
(0 -0 6.987517525e-06)
(0 -0 7.466341362e-06)
(0 -0 7.940308636e-06)
(0 -0 8.404890667e-06)
(0 -0 8.855700082e-06)
(0 -0 9.288637072e-06)
(0 -0 9.700042284e-06)
(0 -0 1.008672396e-05)
(0 -0 1.04459406e-05)
(0 -0 1.077535217e-05)
(0 -0 1.1072939e-05)
(0 -0 1.133692079e-05)
(0 -0 1.156570035e-05)
(0 -0 1.175783766e-05)
(0 -0 1.191204994e-05)
(0 -0 1.20272484e-05)
(0 -0 1.210259502e-05)
(0 -0 1.213755027e-05)
(0 -0 1.213189445e-05)
(0 -0 1.208572125e-05)
(0 -0 1.199941305e-05)
(0 -0 1.187361056e-05)
(0 -0 1.170918833e-05)
(0 -0 1.150724087e-05)
(0 -0 1.126907842e-05)
(0 -0 1.099623084e-05)
(0 -0 1.069045768e-05)
(0 -0 1.035375682e-05)
(0 -0 9.988359748e-06)
(0 -0 9.596711295e-06)
(0 -0 9.181449706e-06)
(0 -0 8.745400191e-06)
(0 -0 8.291567524e-06)
(0 -0 7.823107493e-06)
(0 -0 7.343294558e-06)
(0 -0 6.855513112e-06)
(0 -0 6.363244297e-06)
(0 -0 5.87000876e-06)
(0 -0 5.379300347e-06)
(0 -0 -3.71447987e-08)
(0 -0 1.946837173e-07)
(0 -0 4.83878184e-07)
(0 -0 8.153057855e-07)
(0 -0 1.185948545e-06)
(0 -0 1.593004275e-06)
(0 -0 2.031195985e-06)
(0 -0 2.493962556e-06)
(0 -0 2.975158011e-06)
(0 -0 3.469657887e-06)
(0 -0 3.973002598e-06)
(0 -0 4.480832143e-06)
(0 -0 4.988582937e-06)
(0 -0 5.491473843e-06)
(0 -0 5.984652823e-06)
(0 -0 6.463386005e-06)
(0 -0 6.923276488e-06)
(0 -0 7.360388725e-06)
(0 -0 7.771290842e-06)
(0 -0 8.153029672e-06)
(0 -0 8.503059545e-06)
(0 -0 8.819161885e-06)
(0 -0 9.09937188e-06)
(0 -0 9.34192303e-06)
(0 -0 9.545219725e-06)
(0 -0 9.707844616e-06)
(0 -0 9.828597843e-06)
(0 -0 9.906553956e-06)
(0 -0 9.94111405e-06)
(0 -0 9.932033947e-06)
(0 -0 9.879421383e-06)
(0 -0 9.783707644e-06)
(0 -0 9.645608808e-06)
(0 -0 9.466093786e-06)
(0 -0 9.246369084e-06)
(0 -0 8.987879126e-06)
(0 -0 8.692313378e-06)
(0 -0 8.361613692e-06)
(0 -0 7.997979368e-06)
(0 -0 7.603863693e-06)
(0 -0 7.18195291e-06)
(0 -0 6.735134728e-06)
(0 -0 6.266483253e-06)
(0 -0 5.779266698e-06)
(0 -0 5.276939917e-06)
(0 -0 4.76309802e-06)
(0 -0 4.241426608e-06)
(0 -0 3.715676014e-06)
(0 -0 3.189629014e-06)
(0 -0 2.667047515e-06)
(0 -0 -2.463503405e-06)
(0 -0 -2.220958292e-06)
(0 -0 -1.917600284e-06)
(0 -0 -1.56918039e-06)
(0 -0 -1.179083754e-06)
(0 -0 -7.5060195e-07)
(0 -0 -2.893579977e-07)
(0 -0 1.98149379e-07)
(0 -0 7.060947983e-07)
(0 -0 1.229495941e-06)
(0 -0 1.7635548e-06)
(0 -0 2.303199179e-06)
(0 -0 2.843100914e-06)
(0 -0 3.377904203e-06)
(0 -0 3.90240095e-06)
(0 -0 4.41163163e-06)
(0 -0 4.900979934e-06)
(0 -0 5.366271886e-06)
(0 -0 5.803833499e-06)
(0 -0 6.210479437e-06)
(0 -0 6.583447718e-06)
(0 -0 6.920316989e-06)
(0 -0 7.218932245e-06)
(0 -0 7.477350835e-06)
(0 -0 7.693816538e-06)
(0 -0 7.86676788e-06)
(0 -0 7.994880503e-06)
(0 -0 8.077130952e-06)
(0 -0 8.112857618e-06)
(0 -0 8.101795037e-06)
(0 -0 8.044070219e-06)
(0 -0 7.940166664e-06)
(0 -0 7.790875555e-06)
(0 -0 7.597257426e-06)
(0 -0 7.360629308e-06)
(0 -0 7.082573886e-06)
(0 -0 6.76495235e-06)
(0 -0 6.409904767e-06)
(0 -0 6.019841295e-06)
(0 -0 5.597437313e-06)
(0 -0 5.145628591e-06)
(0 -0 4.667588963e-06)
(0 -0 4.166697176e-06)
(0 -0 3.646521508e-06)
(0 -0 3.110817714e-06)
(0 -0 2.563499039e-06)
(0 -0 2.008574888e-06)
(0 -0 1.450098123e-06)
(0 -0 8.921221595e-07)
(0 -0 3.386480091e-07)
(0 -0 -4.619716792e-06)
(0 -0 -4.363289772e-06)
(0 -0 -4.040800951e-06)
(0 -0 -3.670170652e-06)
(0 -0 -3.257401454e-06)
(0 -0 -2.806803242e-06)
(0 -0 -2.322973995e-06)
(0 -0 -1.810981355e-06)
(0 -0 -1.276160415e-06)
(0 -0 -7.238686288e-07)
(0 -0 -1.594403494e-07)
(0 -0 4.117228611e-07)
(0 -0 9.840798443e-07)
(0 -0 1.551957716e-06)
(0 -0 2.109655592e-06)
(0 -0 2.651637058e-06)
(0 -0 3.172759417e-06)
(0 -0 3.668445401e-06)
(0 -0 4.13473492e-06)
(0 -0 4.568226925e-06)
(0 -0 4.965971098e-06)
(0 -0 5.325364308e-06)
(0 -0 5.644072986e-06)
(0 -0 5.91998148e-06)
(0 -0 6.151168004e-06)
(0 -0 6.3359164e-06)
(0 -0 6.472767164e-06)
(0 -0 6.560593585e-06)
(0 -0 6.59867264e-06)
(0 -0 6.586720779e-06)
(0 -0 6.524883313e-06)
(0 -0 6.413689643e-06)
(0 -0 6.253999871e-06)
(0 -0 6.046966508e-06)
(0 -0 5.794023047e-06)
(0 -0 5.496895873e-06)
(0 -0 5.157622785e-06)
(0 -0 4.778556142e-06)
(0 -0 4.362345128e-06)
(0 -0 3.911917032e-06)
(0 -0 3.43047499e-06)
(0 -0 2.921495199e-06)
(0 -0 2.388696095e-06)
(0 -0 1.835992178e-06)
(0 -0 1.267462129e-06)
(0 -0 6.873174338e-07)
(0 -0 9.985175949e-08)
(0 -0 -4.90603356e-07)
(0 -0 -1.079713673e-06)
(0 -0 -1.663204816e-06)
(0 -0 -6.537553343e-06)
(0 -0 -6.268692332e-06)
(0 -0 -5.929915128e-06)
(0 -0 -5.539680489e-06)
(0 -0 -5.104124546e-06)
(0 -0 -4.627726756e-06)
(0 -0 -4.115444819e-06)
(0 -0 -3.573056106e-06)
(0 -0 -3.006831624e-06)
(0 -0 -2.422881286e-06)
(0 -0 -1.826802265e-06)
(0 -0 -1.223827467e-06)
(0 -0 -6.192089638e-07)
(0 -0 -1.849692791e-08)
(0 -0 5.724547548e-07)
(0 -0 1.147727388e-06)
(0 -0 1.701672314e-06)
(0 -0 2.229184831e-06)
(0 -0 2.725829005e-06)
(0 -0 3.1878185e-06)
(0 -0 3.611913674e-06)
(0 -0 3.995297338e-06)
(0 -0 4.335465073e-06)
(0 -0 4.630145242e-06)
(0 -0 4.877260245e-06)
(0 -0 5.074940407e-06)
(0 -0 5.221589475e-06)
(0 -0 5.315977479e-06)
(0 -0 5.357320749e-06)
(0 -0 5.345315237e-06)
(0 -0 5.280116614e-06)
(0 -0 5.162289214e-06)
(0 -0 4.992755331e-06)
(0 -0 4.772764152e-06)
(0 -0 4.503881304e-06)
(0 -0 4.187993618e-06)
(0 -0 3.82732419e-06)
(0 -0 3.424445403e-06)
(0 -0 2.982271482e-06)
(0 -0 2.504029369e-06)
(0 -0 1.993233179e-06)
(0 -0 1.453673268e-06)
(0 -0 8.89392295e-07)
(0 -0 3.046350773e-07)
(0 -0 -2.961975224e-07)
(0 -0 -9.085819027e-07)
(0 -0 -1.527921015e-06)
(0 -0 -2.149600571e-06)
(0 -0 -2.769023003e-06)
(0 -0 -3.381651018e-06)
(0 -0 -8.236079505e-06)
(0 -0 -7.95437723e-06)
(0 -0 -7.599081916e-06)
(0 -0 -7.189359599e-06)
(0 -0 -6.731485114e-06)
(0 -0 -6.230055786e-06)
(0 -0 -5.690200164e-06)
(0 -0 -5.117906017e-06)
(0 -0 -4.519725804e-06)
(0 -0 -3.902191007e-06)
(0 -0 -3.271487315e-06)
(0 -0 -2.633508992e-06)
(0 -0 -1.994060572e-06)
(0 -0 -1.358994166e-06)
(0 -0 -7.342224915e-07)
(0 -0 -1.256234319e-07)
(0 -0 4.611209665e-07)
(0 -0 1.020700674e-06)
(0 -0 1.548314586e-06)
(0 -0 2.039736137e-06)
(0 -0 2.491304451e-06)
(0 -0 2.899856437e-06)
(0 -0 3.262625115e-06)
(0 -0 3.577137337e-06)
(0 -0 3.841148761e-06)
(0 -0 4.052644502e-06)
(0 -0 4.209905417e-06)
(0 -0 4.311607169e-06)
(0 -0 4.356904193e-06)
(0 -0 4.345462998e-06)
(0 -0 4.277440454e-06)
(0 -0 4.153431698e-06)
(0 -0 3.974421938e-06)
(0 -0 3.741762025e-06)
(0 -0 3.457163534e-06)
(0 -0 3.122699618e-06)
(0 -0 2.740808384e-06)
(0 -0 2.314302131e-06)
(0 -0 1.846369848e-06)
(0 -0 1.340551467e-06)
(0 -0 8.006922299e-07)
(0 -0 2.309078324e-07)
(0 -0 -3.644413418e-07)
(0 -0 -9.80794422e-07)
(0 -0 -1.613439223e-06)
(0 -0 -2.257536531e-06)
(0 -0 -2.908151746e-06)
(0 -0 -3.560324357e-06)
(0 -0 -4.20913599e-06)
(0 -0 -4.849767015e-06)
(0 -0 -9.733532921e-06)
(0 -0 -9.43871691e-06)
(0 -0 -9.066587578e-06)
(0 -0 -8.637064159e-06)
(0 -0 -8.156615322e-06)
(0 -0 -7.630019536e-06)
(0 -0 -7.062649383e-06)
(0 -0 -6.460736641e-06)
(0 -0 -5.831031389e-06)
(0 -0 -5.180241697e-06)
(0 -0 -4.51479848e-06)
(0 -0 -3.840994487e-06)
(0 -0 -3.165190494e-06)
(0 -0 -2.493858854e-06)
(0 -0 -1.833450981e-06)
(0 -0 -1.190195315e-06)
(0 -0 -5.699298447e-07)
(0 -0 2.19823099e-08)
(0 -0 5.806656839e-07)
(0 -0 1.101715076e-06)
(0 -0 1.58117874e-06)
(0 -0 2.015540267e-06)
(0 -0 2.401681603e-06)
(0 -0 2.736826855e-06)
(0 -0 3.018495167e-06)
(0 -0 3.244498071e-06)
(0 -0 3.412992406e-06)
(0 -0 3.52256489e-06)
(0 -0 3.572307156e-06)
(0 -0 3.561849669e-06)
(0 -0 3.491347326e-06)
(0 -0 3.361433114e-06)
(0 -0 3.173168725e-06)
(0 -0 2.928017657e-06)
(0 -0 2.627845061e-06)
(0 -0 2.274925493e-06)
(0 -0 1.871940163e-06)
(0 -0 1.421968427e-06)
(0 -0 9.284815222e-07)
(0 -0 3.953225377e-07)
(0 -0 -1.733425044e-07)
(0 -0 -7.730759526e-07)
(0 -0 -1.399194342e-06)
(0 -0 -2.046795274e-06)
(0 -0 -2.710806696e-06)
(0 -0 -3.386026961e-06)
(0 -0 -4.06715851e-06)
(0 -0 -4.748876391e-06)
(0 -0 -5.425913229e-06)
(0 -0 -6.093130392e-06)
(0 -0 -1.104360786e-05)
(0 -0 -1.073560899e-05)
(0 -0 -1.03465612e-05)
(0 -0 -9.897116047e-06)
(0 -0 -9.393945684e-06)
(0 -0 -8.842019289e-06)
(0 -0 -8.246970518e-06)
(0 -0 -7.615319101e-06)
(0 -0 -6.954087209e-06)
(0 -0 -6.270219115e-06)
(0 -0 -5.570356976e-06)
(0 -0 -4.86102361e-06)
(0 -0 -4.148889007e-06)
(0 -0 -3.440857529e-06)
(0 -0 -2.743917819e-06)
(0 -0 -2.064853519e-06)
(0 -0 -1.409961661e-06)
(0 -0 -7.848984262e-07)
(0 -0 -1.946826839e-07)
(0 -0 3.561998359e-07)
(0 -0 8.636804935e-07)
(0 -0 1.324035118e-06)
(0 -0 1.73385661e-06)
(0 -0 2.090051044e-06)
(0 -0 2.389847415e-06)
(0 -0 2.630828508e-06)
(0 -0 2.810988501e-06)
(0 -0 2.928805147e-06)
(0 -0 2.983300964e-06)
(0 -0 2.974071707e-06)
(0 -0 2.901275761e-06)
(0 -0 2.765594011e-06)
(0 -0 2.568180369e-06)
(0 -0 2.310627575e-06)
(0 -0 1.994963528e-06)
(0 -0 1.623666401e-06)
(0 -0 1.199666442e-06)
(0 -0 7.263221343e-07)
(0 -0 2.073927091e-07)
(0 -0 -3.529810269e-07)
(0 -0 -9.503112585e-07)
(0 -0 -1.57981743e-06)
(0 -0 -2.23646293e-06)
(0 -0 -2.91497223e-06)
(0 -0 -3.609869288e-06)
(0 -0 -4.315534363e-06)
(0 -0 -5.026256794e-06)
(0 -0 -5.736311158e-06)
(0 -0 -6.44006113e-06)
(0 -0 -7.132051013e-06)
(0 -0 -1.217651733e-05)
(0 -0 -1.18553892e-05)
(0 -0 -1.144950412e-05)
(0 -0 -1.098021811e-05)
(0 -0 -1.045440742e-05)
(0 -0 -9.877226767e-06)
(0 -0 -9.254558139e-06)
(0 -0 -8.593201199e-06)
(0 -0 -7.900466693e-06)
(0 -0 -7.183585037e-06)
(0 -0 -6.44947226e-06)
(0 -0 -5.704906441e-06)
(0 -0 -4.956810883e-06)
(0 -0 -4.212383729e-06)
(0 -0 -3.478993486e-06)
(0 -0 -2.763893153e-06)
(0 -0 -2.073882041e-06)
(0 -0 -1.415060996e-06)
(0 -0 -7.927689083e-07)
(0 -0 -2.116853422e-07)
(0 -0 3.239936655e-07)
(0 -0 8.104060484e-07)
(0 -0 1.243949703e-06)
(0 -0 1.621280529e-06)
(0 -0 1.939357332e-06)
(0 -0 2.195513132e-06)
(0 -0 2.387540257e-06)
(0 -0 2.51377417e-06)
(0 -0 2.573154418e-06)
(0 -0 2.565245209e-06)
(0 -0 2.490216161e-06)
(0 -0 2.348800122e-06)
(0 -0 2.142247355e-06)
(0 -0 1.87229004e-06)
(0 -0 1.541129021e-06)
(0 -0 1.151444794e-06)
(0 -0 7.06407876e-07)
(0 -0 2.09656709e-07)
(0 -0 -3.347475787e-07)
(0 -0 -9.22352805e-07)
(0 -0 -1.548335193e-06)
(0 -0 -2.207538667e-06)
(0 -0 -2.894522382e-06)
(0 -0 -3.603589623e-06)
(0 -0 -4.328826849e-06)
(0 -0 -5.064172761e-06)
(0 -0 -5.803478846e-06)
(0 -0 -6.540569427e-06)
(0 -0 -7.269358367e-06)
(0 -0 -7.984006871e-06)
(0 -0 -1.314008633e-05)
(0 -0 -1.280599243e-05)
(0 -0 -1.23834822e-05)
(0 -0 -1.189459292e-05)
(0 -0 -1.134640452e-05)
(0 -0 -1.074425436e-05)
(0 -0 -1.009426195e-05)
(0 -0 -9.403491914e-06)
(0 -0 -8.679532836e-06)
(0 -0 -7.929904818e-06)
(0 -0 -7.16182238e-06)
(0 -0 -6.382357472e-06)
(0 -0 -5.598714671e-06)
(0 -0 -4.818372029e-06)
(0 -0 -4.049007426e-06)
(0 -0 -3.298239537e-06)
(0 -0 -2.5732867e-06)
(0 -0 -1.88068126e-06)
(0 -0 -1.226149224e-06)
(0 -0 -6.146743055e-07)
(0 -0 -5.067459309e-08)
(0 -0 4.618125816e-07)
(0 -0 9.190119879e-07)
(0 -0 1.317380164e-06)
(0 -0 1.653649178e-06)
(0 -0 1.924918941e-06)
(0 -0 2.128772538e-06)
(0 -0 2.263386795e-06)
(0 -0 2.327606881e-06)
(0 -0 2.320963547e-06)
(0 -0 2.24363918e-06)
(0 -0 2.096414655e-06)
(0 -0 1.880627178e-06)
(0 -0 1.598144154e-06)
(0 -0 1.251345634e-06)
(0 -0 8.431190693e-07)
(0 -0 3.76867424e-07)
(0 -0 -1.434959765e-07)
(0 -0 -7.135878575e-07)
(0 -0 -1.32860381e-06)
(0 -0 -1.983345205e-06)
(0 -0 -2.67224856e-06)
(0 -0 -3.38943653e-06)
(0 -0 -4.128763307e-06)
(0 -0 -4.883856217e-06)
(0 -0 -5.648205974e-06)
(0 -0 -6.415213993e-06)
(0 -0 -7.178251401e-06)
(0 -0 -7.930752868e-06)
(0 -0 -8.666294381e-06)
(0 -0 -1.394044776e-05)
(0 -0 -1.359366105e-05)
(0 -0 -1.315486492e-05)
(0 -0 -1.264676085e-05)
(0 -0 -1.207662879e-05)
(0 -0 -1.144998596e-05)
(0 -0 -1.07731812e-05)
(0 -0 -1.005353194e-05)
(0 -0 -9.298891822e-06)
(0 -0 -8.517060664e-06)
(0 -0 -7.715548107e-06)
(0 -0 -6.901730252e-06)