/*--------------------------------*- C++ -*----------------------------------*\
| =========                 |                                                 |
| \\      /  F ield         | foam-extend: Open Source CFD                    |
|  \\    /   O peration     | Version:     4.1                                |
|   \\  /    A nd           | Web:         http://www.foam-extend.org         |
|    \\/     M anipulation  |                                                 |
\*---------------------------------------------------------------------------*/
FoamFile
{
    version     2.0;
    format      ascii;
    class       volScalarField;
    location    "500000";
    object      p;
}
// * * * * * * * * * * * * * * * * * * * * * * * * * * * * * * * * * * * * * //

dimensions      [0 2 -2 0 0 0 0];

internalField   nonuniform List<scalar> 
15920
(
3.164165517e-08
2.91257841e-08
2.739500347e-08
2.647674305e-08
2.581997469e-08
2.520940882e-08
2.463488081e-08
2.410877813e-08
2.362600301e-08
2.317602209e-08
2.27517348e-08
2.234952907e-08
2.196731812e-08
2.160354356e-08
2.125693198e-08
2.092641651e-08
2.06110455e-08
2.030989978e-08
2.002204207e-08
1.974649405e-08
1.948223088e-08
1.922818652e-08
1.898326579e-08
1.874636021e-08
1.851636576e-08
1.829220036e-08
1.807282012e-08
1.785723338e-08
1.764451265e-08
1.743380363e-08
1.722433156e-08
1.701540499e-08
1.680641726e-08
1.659684619e-08
1.63862522e-08
1.617427543e-08
1.596063206e-08
1.574511013e-08
1.552756514e-08
1.530791543e-08
1.508613758e-08
1.486226185e-08
1.46363678e-08
1.44085801e-08
1.41790646e-08
1.394802427e-08
1.371569501e-08
1.34823413e-08
1.324825216e-08
1.301373726e-08
2.837589614e-08
2.765787544e-08
2.681626433e-08
2.615627908e-08
2.561250681e-08
2.509583444e-08
2.459210824e-08
2.411182624e-08
2.365744838e-08
2.322550388e-08
2.281287058e-08
2.241805095e-08
2.20402815e-08
2.167890772e-08
2.133325981e-08
2.100266501e-08
2.068643442e-08
2.038383149e-08
2.00940528e-08
1.981622177e-08
1.954939348e-08
1.929256697e-08
1.904470169e-08
1.880473614e-08
1.857160734e-08
1.834426992e-08
1.812171256e-08
1.790297168e-08
1.768714396e-08
1.747339566e-08
1.726096921e-08
1.704918718e-08
1.683745399e-08
1.66252559e-08
1.641215939e-08
1.619780866e-08
1.598192222e-08
1.576428908e-08
1.554476459e-08
1.532326614e-08
1.509976883e-08
1.487430105e-08
1.464694016e-08
1.441780825e-08
1.418706819e-08
1.395491973e-08
1.372159489e-08
1.348735332e-08
1.325247987e-08
1.301728122e-08
2.723587042e-08
2.692344133e-08
2.640641748e-08
2.587260349e-08
2.538294574e-08
2.491941569e-08
2.446793057e-08
2.40302324e-08
2.360962088e-08
2.320599427e-08
2.281793876e-08
2.244439768e-08
2.208475511e-08
2.173853449e-08
2.140526649e-08
2.108447419e-08
2.077566653e-08
2.047831684e-08
2.019184035e-08
1.991558656e-08
1.964884077e-08
1.939083049e-08
1.914073597e-08
1.889770359e-08
1.866086092e-08
1.842933187e-08
1.820225302e-08
1.797878889e-08
1.775814324e-08
1.753956902e-08
1.732237626e-08
1.710593805e-08
1.688969435e-08
1.667315417e-08
1.645589635e-08
1.623756911e-08
1.601788872e-08
1.579663745e-08
1.557366091e-08
1.534886519e-08
1.51222137e-08
1.48937235e-08
1.46634614e-08
1.443154078e-08
1.419811847e-08
1.396339134e-08
1.372758778e-08
1.349096569e-08
1.32538114e-08
1.301643387e-08
2.637756112e-08
2.617781391e-08
2.583175416e-08
2.543748342e-08
2.504546535e-08
2.46601903e-08
2.427700851e-08
2.389717887e-08
2.352431325e-08
2.316038532e-08
2.280583041e-08
2.246069257e-08
2.212506179e-08
2.17990194e-08
2.148256041e-08
2.117558935e-08
2.08779313e-08
2.058933248e-08
2.030945597e-08
2.00378818e-08
1.977411194e-08
1.951757858e-08
1.926765519e-08
1.902366958e-08
1.878491812e-08
1.855068057e-08
1.832023486e-08
1.809287074e-08
1.786790145e-08
1.76446741e-08
1.742257825e-08
1.720105295e-08
1.697959188e-08
1.6757747e-08
1.653513089e-08
1.631141782e-08
1.608634402e-08
1.585970688e-08
1.563136344e-08
1.540122928e-08
1.516927716e-08
1.493553168e-08
1.470006561e-08
1.446300084e-08
1.422450931e-08
1.398482375e-08
1.374416822e-08
1.350280999e-08
1.326105134e-08
1.301921353e-08
2.577423511e-08
2.562524463e-08
2.537806352e-08
2.508286656e-08
2.47680997e-08
2.44434688e-08
2.411206411e-08
2.377735407e-08
2.344322217e-08
2.31124571e-08
2.278659094e-08
2.246649197e-08
2.21527649e-08
2.184584403e-08
2.154599617e-08
2.125333853e-08
2.096786535e-08
2.068946625e-08
2.041793635e-08
2.015298413e-08
1.989424005e-08
1.964126647e-08
1.939356865e-08
1.915060645e-08
1.891180667e-08
1.867657552e-08
1.844431093e-08
1.821441419e-08
1.798630056e-08
1.775940874e-08
1.753320913e-08
1.73072107e-08
1.708096673e-08
1.68540791e-08
1.662620159e-08
1.63970421e-08
1.61663644e-08
1.593398891e-08
1.569978897e-08
1.546369656e-08
1.522570636e-08
1.498586179e-08
1.474424543e-08
1.450098098e-08
1.425622254e-08
1.401032395e-08
1.376348296e-08
1.351600806e-08
1.326824413e-08
1.302054321e-08
2.531521335e-08
2.518894782e-08
2.499267107e-08
2.475814372e-08
2.449921556e-08
2.422335764e-08
2.393590813e-08
2.364132608e-08
2.334333963e-08
2.304474562e-08
2.274745175e-08
2.245275519e-08
2.216158776e-08
2.187463035e-08
2.159235684e-08
2.131506547e-08
2.104290904e-08
2.077591861e-08
2.051401988e-08
2.025704569e-08
2.000474721e-08
1.975680509e-08
1.951284052e-08
1.927242652e-08
1.903509943e-08
1.880037023e-08
1.85677356e-08
1.833668856e-08
1.81067282e-08
1.787736878e-08
1.764814772e-08
1.741863274e-08
1.718842782e-08
1.695717796e-08
1.67245743e-08
1.649035542e-08
1.625431317e-08
1.601629613e-08
1.577619159e-08
1.553395167e-08
1.528958383e-08
1.504314321e-08
1.479475755e-08
1.454462404e-08
1.429299308e-08
1.403998995e-08
1.378599287e-08
1.353133869e-08
1.327638196e-08
1.302151642e-08
2.495314758e-08
2.48393083e-08
2.467293232e-08
2.447856722e-08
2.426142646e-08
2.402508918e-08
2.377443351e-08
2.351403276e-08
2.324744866e-08
2.297735273e-08
2.270575322e-08
2.243416463e-08
2.21637329e-08
2.189532022e-08
2.162955867e-08
2.136688892e-08
2.110759169e-08
2.085181298e-08
2.059958362e-08
2.035083476e-08
2.010541133e-08
1.986308433e-08
1.962356261e-08
1.938650422e-08
1.915152756e-08
1.89182221e-08
1.868615881e-08
1.845489999e-08
1.822400861e-08
1.799305697e-08
1.776163459e-08
1.752935561e-08
1.729586577e-08
1.706084388e-08
1.682401452e-08
1.658514232e-08
1.634405511e-08
1.610059356e-08
1.585462784e-08
1.56061346e-08
1.53551663e-08
1.510184106e-08
1.484633173e-08
1.458884605e-08
1.43296336e-08
1.406897475e-08
1.380722925e-08
1.354477828e-08
1.328202926e-08
1.301942299e-08
2.466155602e-08
2.455541191e-08
2.440804449e-08
2.42407562e-08
2.405391445e-08
2.384804527e-08
2.362690807e-08
2.339472017e-08
2.315476515e-08
2.290948094e-08
2.266077798e-08
2.241018826e-08
2.21589237e-08
2.190792287e-08
2.165789626e-08
2.140936416e-08
2.116268641e-08
2.091808611e-08
2.067566879e-08
2.043543838e-08
2.019731109e-08
1.996112787e-08
1.972666602e-08
1.949365028e-08
1.92617634e-08
1.903065631e-08
1.879995791e-08
1.856928434e-08
1.833824785e-08
1.810646546e-08
1.787356669e-08
1.763920107e-08
1.740305112e-08
1.716482575e-08
1.692424661e-08
1.668102553e-08
1.643494369e-08
1.618591497e-08
1.593397332e-08
1.56791647e-08
1.542156388e-08
1.516129786e-08
1.489853941e-08
1.463351507e-08
1.436650818e-08
1.409785523e-08
1.382794243e-08
1.355720025e-08
1.328609531e-08
1.301512537e-08
2.442376566e-08
2.432275223e-08
2.418822513e-08
2.40398828e-08
2.38753514e-08
2.369309778e-08
2.349577324e-08
2.328701814e-08
2.306971859e-08
2.284600555e-08
2.261759212e-08
2.238591582e-08
2.215215997e-08
2.19172686e-08
2.168197646e-08
2.144684029e-08
2.121226435e-08
2.097852061e-08
2.074576578e-08
2.051405597e-08
2.028335983e-08
2.005357045e-08
1.982451643e-08
1.959597236e-08
1.936766885e-08
1.913930214e-08
1.891054331e-08
1.868104756e-08
1.845046219e-08
1.821843645e-08
1.798463169e-08
1.774872689e-08
1.751032753e-08
1.726906924e-08
1.702470668e-08
1.677712686e-08
1.652625914e-08
1.627205127e-08
1.601448321e-08
1.575356903e-08
1.54893789e-08
1.522205043e-08
1.495178761e-08
1.467885986e-08
1.440359943e-08
1.412639712e-08
1.384769755e-08
1.356799463e-08
1.328782326e-08
1.300775124e-08
2.422859879e-08
2.413121113e-08
2.400582183e-08
2.387126083e-08
2.372351747e-08
2.355970395e-08
2.338157727e-08
2.31921965e-08
2.299402832e-08
2.278888463e-08
2.257825063e-08
2.236341854e-08
2.21454879e-08
2.192535898e-08
2.170374857e-08
2.148121326e-08
2.125816971e-08
2.103491095e-08
2.081162037e-08
2.058838442e-08
2.036520427e-08
2.014200668e-08
1.991865409e-08
1.969495434e-08
1.947066993e-08
1.924552741e-08
1.901922542e-08
1.879144593e-08
1.856186137e-08
1.83301232e-08
1.809580499e-08
1.785849305e-08
1.761792695e-08
1.737394269e-08
1.712637427e-08
1.687506933e-08
1.661988983e-08
1.636073867e-08
1.609757881e-08
1.583044097e-08
1.555942678e-08
1.52847101e-08
1.500653665e-08
1.47252226e-08
1.444115257e-08
1.415477652e-08
1.386660522e-08
1.357720424e-08
1.328718568e-08
1.299719877e-08
2.406813053e-08
2.397341978e-08
2.385480373e-08
2.373060246e-08
2.359577168e-08
2.344652946e-08
2.328397001e-08
2.311065691e-08
2.292867064e-08
2.273951892e-08
2.25444554e-08
2.234460541e-08
2.214095387e-08
2.193432513e-08
2.17253879e-08
2.15146711e-08
2.130257888e-08
2.108940278e-08
2.087533261e-08
2.06604667e-08
2.044482176e-08
2.02283422e-08
2.00109091e-08
1.979234923e-08
1.957244279e-08
1.935093496e-08
1.912754031e-08
1.890191887e-08
1.867365011e-08
1.84423296e-08
1.820767344e-08
1.796946023e-08
1.772746403e-08
1.748143327e-08
1.723112573e-08
1.697633945e-08
1.671692535e-08
1.645279616e-08
1.618393236e-08
1.591038564e-08
1.563228131e-08
1.534982134e-08
1.506328685e-08
1.477303886e-08
1.447951711e-08
1.418323706e-08
1.38847848e-08
1.358480982e-08
1.328401585e-08
1.298314957e-08
2.393649933e-08
2.384383523e-08
2.373041046e-08
2.361422596e-08
2.348955085e-08
2.335200113e-08
2.320219272e-08
2.304229425e-08
2.287405485e-08
2.269870902e-08
2.251729243e-08
2.233076237e-08
2.213997807e-08
2.194567205e-08
2.174844732e-08
2.154878727e-08
2.134706601e-08
2.114355678e-08
2.093843979e-08
2.073180999e-08
2.0523685e-08
2.03140132e-08
2.010268052e-08
1.988952165e-08
1.967432182e-08
1.945678975e-08
1.923654714e-08
1.901322325e-08
1.878653291e-08
1.855622276e-08
1.832201689e-08
1.808359944e-08
1.784065236e-08
1.759287918e-08
1.734002356e-08
1.70818795e-08
1.681829709e-08
1.654918787e-08
1.627453174e-08
1.599438422e-08
1.57088829e-08
1.541825291e-08
1.512281068e-08
1.48229655e-08
1.451921885e-08
1.421216119e-08
1.390246612e-08
1.359088207e-08
1.327822131e-08
1.296534662e-08
2.382921912e-08
2.373816619e-08
2.362883468e-08
2.351901495e-08
2.340249898e-08
2.327448644e-08
2.313524932e-08
2.298665129e-08
2.283016926e-08
2.266680305e-08
2.249739312e-08
2.232273896e-08
2.214357491e-08
2.196053627e-08
2.177415151e-08
2.158484774e-08
2.139295726e-08
2.119872279e-08
2.100230263e-08
2.080377653e-08
2.060315073e-08
2.040036817e-08
2.019530728e-08
1.998775656e-08
1.97774123e-08
1.956396148e-08
1.934714252e-08
1.912670189e-08
1.890234401e-08
1.867372091e-08
1.8440466e-08
1.820221522e-08
1.795862516e-08
1.77093832e-08
1.74542141e-08
1.719288807e-08
1.692523019e-08
1.66511305e-08
1.63705544e-08
1.608355258e-08
1.579026965e-08
1.549095116e-08
1.51859486e-08
1.487572216e-08
1.456084082e-08
1.424197942e-08
1.391991239e-08
1.359550397e-08
1.326969512e-08
1.294348739e-08
2.37427562e-08
2.365300417e-08
2.354698127e-08
2.344233269e-08
2.333250548e-08
2.321240361e-08
2.308205017e-08
2.294307647e-08
2.279674101e-08
2.264384743e-08
2.248506693e-08
2.232105667e-08
2.215243352e-08
2.197973713e-08
2.180341898e-08
2.162384476e-08
2.144129822e-08
2.125598404e-08
2.106802954e-08
2.087749277e-08
2.068435769e-08
2.048851219e-08
2.02897514e-08
2.008784343e-08
1.988257619e-08
1.967372428e-08
1.946100623e-08
1.924407676e-08
1.902255445e-08
1.879604053e-08
1.856413479e-08
1.832644475e-08
1.808259269e-08
1.783222424e-08
1.757501878e-08
1.731070142e-08
1.70390559e-08
1.675993742e-08
1.647328524e-08
1.617913474e-08
1.587762849e-08
1.556902573e-08
1.525370971e-08
1.493219238e-08
1.460511584e-08
1.427324992e-08
1.393748544e-08
1.359882293e-08
1.325835697e-08
1.29172564e-08
2.36742563e-08
2.358557875e-08
2.348229079e-08
2.338193369e-08
2.327769643e-08
2.316426747e-08
2.304148793e-08
2.291081259e-08
2.277332689e-08
2.262967324e-08
2.248037913e-08
2.232597697e-08
2.216697712e-08
2.200382936e-08
2.183691019e-08
2.166652298e-08
2.14928999e-08
2.131620592e-08
2.113652914e-08
2.095386254e-08
2.076811205e-08
2.057914373e-08
2.038681655e-08
2.019095794e-08
1.999132977e-08
1.9787622e-08
1.957947374e-08
1.936648818e-08
1.914824566e-08
1.892431108e-08
1.869423993e-08
1.845758617e-08
1.821391205e-08
1.796280004e-08
1.770386601e-08
1.743677327e-08
1.716124735e-08
1.687709124e-08
1.658420095e-08
1.628258075e-08
1.597235773e-08
1.565379482e-08
1.532730142e-08
1.499344093e-08
1.465293416e-08
1.430665791e-08
1.395563793e-08
1.3601036e-08
1.324413108e-08
1.288629498e-08
2.362136133e-08
2.353359004e-08
2.343261009e-08
2.333588586e-08
2.323640723e-08
2.31287018e-08
2.301247622e-08
2.288905104e-08
2.275937536e-08
2.262396057e-08
2.248321398e-08
2.233756084e-08
2.218741761e-08
2.203315186e-08
2.187507055e-08
2.171341823e-08
2.154837277e-08
2.138002263e-08
2.12083816e-08
2.103341878e-08
2.085507712e-08
2.067325373e-08
2.048777538e-08
2.029839389e-08
2.01048001e-08
1.990663435e-08
1.97034961e-08
1.949494898e-08
1.928052513e-08
1.90597309e-08
1.883205482e-08
1.859697759e-08
1.835398382e-08
1.810257506e-08
1.784228424e-08
1.757269156e-08
1.729344179e-08
1.700426286e-08
1.67049852e-08
1.639556128e-08
1.607608474e-08
1.574680807e-08
1.540815781e-08
1.506074612e-08
1.470537718e-08
1.434304768e-08
1.39749401e-08
1.360240805e-08
1.32269535e-08
1.28501963e-08
2.358208236e-08
2.349509061e-08
2.339609659e-08
2.330250625e-08
2.320715141e-08
2.310443683e-08
2.299396887e-08
2.287696584e-08
2.275426973e-08
2.262628605e-08
2.249332248e-08
2.235571412e-08
2.221379853e-08
2.206786793e-08
2.191815956e-08
2.176484103e-08
2.160801603e-08
2.144774462e-08
2.128405371e-08
2.111691687e-08
2.094623708e-08
2.077184492e-08
2.059350573e-08
2.041092556e-08
2.022375678e-08
2.003160075e-08
1.983400981e-08
1.963049048e-08
1.942050847e-08
1.920349563e-08
1.897885854e-08
1.874598875e-08
1.85042747e-08
1.825311551e-08
1.799193707e-08
1.772021031e-08
1.743747172e-08
1.714334579e-08
1.683756909e-08
1.652001522e-08
1.619071983e-08
1.584990461e-08
1.549799884e-08
1.513565677e-08
1.476376891e-08
1.438346559e-08
1.399611147e-08
1.360328936e-08
1.32067728e-08
1.280848754e-08
2.3554709e-08
2.346840038e-08
2.337114583e-08
2.3280307e-08
2.318858582e-08
2.309029186e-08
2.29849571e-08
2.287372214e-08
2.275734534e-08
2.263614795e-08
2.25103526e-08
2.238021803e-08
2.224600928e-08
2.2107938e-08
2.196617712e-08
2.182085721e-08
2.167207096e-08
2.151986379e-08
2.136421512e-08
2.120503936e-08
2.104218754e-08
2.087544909e-08
2.070455368e-08
2.052917114e-08
2.034891121e-08
2.016332411e-08
1.997190241e-08
1.97740844e-08
1.956925888e-08
1.935677131e-08
1.913593165e-08
1.890602415e-08
1.866631951e-08
1.841608964e-08
1.815462548e-08
1.788125791e-08
1.759538176e-08
1.729648281e-08
1.698416746e-08
1.665819459e-08
1.631850834e-08
1.596527058e-08
1.559889111e-08
1.522005349e-08
1.482973385e-08
1.442920993e-08
1.402005818e-08
1.360413652e-08
1.318355139e-08
1.276060911e-08
2.353774407e-08
2.345204917e-08
2.33563465e-08
2.326797409e-08
2.317950714e-08
2.308518588e-08
2.298449061e-08
2.287850297e-08
2.276791535e-08
2.265298447e-08
2.253385293e-08
2.241071337e-08
2.228376143e-08
2.215318589e-08
2.201912387e-08
2.18816717e-08
2.174087459e-08
2.159672502e-08
2.144915848e-08
2.129805266e-08
2.114322613e-08
2.098443583e-08
2.082137464e-08
2.065366958e-08
2.048088085e-08
2.030250179e-08
2.011795984e-08
1.99266185e-08
1.972778048e-08
1.952069252e-08
1.930455215e-08
1.90785169e-08
1.88417164e-08
1.85932679e-08
1.833229555e-08
1.805795385e-08
1.776945541e-08
1.746610322e-08
1.714732708e-08
1.681272387e-08
1.646210051e-08
1.60955177e-08
1.571333215e-08
1.531623454e-08
1.490527951e-08
1.4481904e-08
1.404792962e-08
1.360554571e-08
1.315727025e-08
1.270588809e-08
2.352983343e-08
2.344468065e-08
2.335034841e-08
2.326425361e-08
2.317875861e-08
2.308806886e-08
2.299163122e-08
2.289048238e-08
2.27852587e-08
2.267614843e-08
2.256327206e-08
2.244677217e-08
2.232680824e-08
2.220351725e-08
2.207699395e-08
2.194729061e-08
2.181441449e-08
2.167832454e-08
2.1538927e-08
2.139607088e-08
2.124954397e-08
2.109906905e-08
2.094430071e-08
2.078482253e-08
2.062014483e-08
2.044970286e-08
2.027285581e-08
2.008888669e-08
1.989700371e-08
1.96963432e-08
1.948597493e-08
1.926491007e-08
1.903211266e-08
1.878651515e-08
1.852703865e-08
1.825261866e-08
1.796223665e-08
1.765495809e-08
1.732997691e-08
1.698666598e-08
1.662463284e-08
1.624377834e-08
1.584435558e-08
1.542702523e-08
1.499290267e-08
1.454359084e-08
1.408119273e-08
1.360829753e-08
1.312793582e-08
1.264350128e-08
2.353000635e-08
2.344534148e-08
2.335232884e-08
2.326812218e-08
2.318529607e-08
2.309794548e-08
2.300545217e-08
2.290881232e-08
2.280862501e-08
2.270504795e-08
2.259815117e-08
2.248804025e-08
2.237483602e-08
2.225863746e-08
2.213950702e-08
2.201746764e-08
2.189250006e-08
2.176453789e-08
2.163346204e-08
2.149909531e-08
2.136119755e-08
2.121946105e-08
2.107350595e-08
2.092287578e-08
2.076703312e-08
2.060535571e-08
2.043713315e-08
2.026156451e-08
2.007775722e-08
1.988472757e-08
1.968140363e-08
1.94666311e-08
1.923918316e-08
1.899777501e-08
1.874108428e-08
1.846777823e-08
1.817654879e-08
1.786615663e-08
1.753548454e-08
1.718360016e-08
1.680982742e-08
1.641382458e-08
1.599566597e-08
1.55559223e-08
1.509573332e-08
1.461686418e-08
1.412173592e-08
1.361342039e-08
1.309559147e-08
1.257242645e-08
2.353673875e-08
2.345253066e-08
2.336067803e-08
2.327842254e-08
2.319814622e-08
2.311393111e-08
2.302514758e-08
2.293276986e-08
2.283736887e-08
2.273907087e-08
2.263791211e-08
2.25339696e-08
2.242733738e-08
2.231808903e-08
2.220626348e-08
2.209186201e-08
2.197484497e-08
2.185512639e-08
2.173256789e-08
2.160697262e-08
2.147807937e-08
2.134555657e-08
2.120899604e-08
2.106790655e-08
2.092170742e-08
2.076972228e-08
2.061117305e-08
2.044517475e-08
2.027073106e-08
2.008673161e-08
1.989195139e-08
1.968505326e-08
1.946459475e-08
1.922904018e-08
1.897677966e-08
1.870615643e-08
1.841550445e-08
1.810319788e-08
1.776771374e-08
1.74077086e-08
1.702210902e-08
1.661021455e-08
1.617181009e-08
1.570728164e-08
1.521772679e-08
1.47050483e-08
1.417201622e-08
1.362228281e-08
1.306033484e-08
1.249137114e-08
2.354924368e-08
2.346547798e-08
2.337474798e-08
2.329428991e-08
2.321640255e-08
2.313514196e-08
2.30498695e-08
2.29615446e-08
2.287071713e-08
2.277749028e-08
2.26818781e-08
2.258393724e-08
2.248374297e-08
2.238135141e-08
2.227678567e-08
2.217003295e-08
2.206104113e-08
2.194971293e-08
2.183589918e-08
2.171939191e-08
2.159991735e-08
2.14771284e-08
2.135059683e-08
2.12198048e-08
2.108413624e-08
2.094286776e-08
2.079515968e-08
2.064004711e-08
2.047643157e-08
2.030307383e-08
2.011858862e-08
1.992144218e-08
1.970995408e-08
1.948230478e-08
1.923655087e-08
1.897065041e-08
1.868250081e-08
1.836999213e-08
1.80310783e-08
1.766386844e-08
1.726673948e-08
1.683847035e-08
1.637839473e-08
1.588656613e-08
1.536392427e-08
1.481244719e-08
1.423526769e-08
1.363672833e-08
1.302234755e-08
1.239867276e-08
2.356653799e-08
2.348318556e-08
2.339351527e-08
2.331474902e-08
2.32391276e-08
2.316068114e-08
2.307876336e-08
2.299432449e-08
2.290790057e-08
2.281957969e-08
2.272936172e-08
2.263729063e-08
2.254343069e-08
2.244782882e-08
2.235050084e-08
2.225142862e-08
2.215055648e-08
2.204778497e-08
2.194296354e-08
2.183588282e-08
2.172626654e-08
2.161376273e-08
2.149793415e-08
2.137824788e-08
2.125406403e-08
2.112462379e-08
2.098903676e-08
2.084626783e-08
2.069512392e-08
2.053424112e-08
2.036207312e-08
2.017688188e-08
1.997673202e-08
1.975949082e-08
1.952283648e-08
1.926427771e-08
1.898118826e-08
1.867086049e-08
1.833058233e-08
1.795774233e-08
1.75499666e-08
1.710528992e-08
1.662236023e-08
1.610067097e-08
1.554080892e-08
1.494469754e-08
1.431580494e-08
1.365927578e-08
1.298193961e-08
1.229214807e-08
2.358771096e-08
2.350475108e-08
2.341608901e-08
2.333893361e-08
2.326547462e-08
2.318972083e-08
2.311102189e-08
2.303032388e-08
2.294815537e-08
2.286459623e-08
2.277963937e-08
2.269332353e-08
2.260570973e-08
2.251684374e-08
2.242674248e-08
2.233539121e-08
2.224273984e-08
2.214869645e-08
2.205311944e-08
2.195580919e-08
2.185649898e-08
2.175484495e-08
2.165041488e-08
2.15426757e-08
2.14309796e-08
2.131454887e-08
2.119245919e-08
2.106362171e-08
2.092676398e-08
2.078041018e-08
2.062286145e-08
2.045217731e-08
2.026615967e-08
2.006234157e-08
1.98379838e-08
1.959008339e-08
1.931539872e-08
1.901049696e-08
1.867183104e-08
1.829585418e-08
1.787917985e-08
1.741879373e-08
1.691232144e-08
1.635835e-08
1.575679207e-08
1.510926881e-08
1.441946975e-08
1.369342777e-08
1.293962928e-08
1.21688688e-08
2.361189631e-08
2.352931092e-08
2.34416109e-08
2.336599404e-08
2.329460414e-08
2.322143296e-08
2.314582987e-08
2.306874128e-08
2.299069362e-08
2.291176451e-08
2.283194625e-08
2.275127918e-08
2.266982824e-08
2.258764571e-08
2.25047578e-08
2.242116193e-08
2.233682311e-08
2.225166726e-08
2.216557309e-08
2.207836321e-08
2.198979423e-08
2.18995457e-08
2.180720729e-08
2.171226439e-08
2.161408168e-08
2.151188459e-08
2.140473846e-08
2.129152523e-08
2.117091781e-08
2.104135223e-08
2.090099813e-08
2.074772829e-08
2.057908869e-08
2.039227158e-08
2.018409452e-08
1.995099021e-08
1.9689013e-08
1.939387013e-08
1.9060988e-08
1.868562615e-08
1.826305275e-08
1.778879566e-08
1.725898163e-08
1.667077057e-08
1.602288057e-08
1.531617998e-08
1.455429534e-08
1.374414678e-08
1.289627985e-08
1.202482514e-08
2.363826741e-08
2.355603991e-08
2.346925914e-08
2.339511365e-08
2.332570573e-08
2.325501366e-08
2.318238982e-08
2.310878477e-08
2.303472742e-08
2.296029835e-08
2.2885495e-08
2.281036547e-08
2.273498542e-08
2.265942093e-08
2.258371543e-08
2.250788727e-08
2.243192618e-08
2.235578665e-08
2.227937972e-08
2.220256374e-08
2.212513397e-08
2.20468106e-08
2.196722483e-08
2.188590266e-08
2.180224622e-08
2.171551205e-08
2.162478599e-08
2.152895442e-08
2.142667158e-08
2.131632272e-08
2.119598312e-08
2.106337318e-08
2.091581107e-08
2.075016465e-08
2.056280578e-08
2.034957174e-08
2.010574062e-08
1.982603102e-08
1.950463995e-08
1.91353368e-08
1.871163582e-08
1.822707287e-08
1.767561419e-08
1.70522218e-08
1.635358908e-08
1.557903584e-08
1.473151248e-08
1.38185996e-08
1.28533029e-08
1.18543365e-08
2.366603439e-08
2.358414863e-08
2.349824535e-08
2.342550536e-08
2.335799339e-08
2.328967738e-08
2.321991541e-08
2.314966554e-08
2.307946314e-08
2.300939633e-08
2.293947276e-08
2.286975392e-08
2.280033229e-08
2.273129456e-08
2.266270896e-08
2.259462317e-08
2.252706115e-08
2.246001679e-08
2.239344577e-08
2.232725637e-08
2.22612988e-08
2.219535281e-08
2.212911297e-08
2.206217127e-08
2.199399655e-08
2.192391003e-08
2.185105642e-08
2.177437e-08
2.169253485e-08
2.160393858e-08
2.150661878e-08
2.139820192e-08
2.127583507e-08
2.113611139e-08
2.097499155e-08
2.078772492e-08
2.056877799e-08
2.031178129e-08
2.000951161e-08
1.965393306e-08
1.923633005e-08
1.874757454e-08
1.817857907e-08
1.752099152e-08
1.676818306e-08
1.591655716e-08
1.496715674e-08
1.39274554e-08
1.281308017e-08
1.164896145e-08
2.369444318e-08
2.361288265e-08
2.352781409e-08
2.345641201e-08
2.339070718e-08
2.332465983e-08
2.325763607e-08
2.319060414e-08
2.312410926e-08
2.305825104e-08
2.299305165e-08
2.292859088e-08
2.28649835e-08
2.280234295e-08
2.274076915e-08
2.268034704e-08
2.262114387e-08
2.25632034e-08
2.250653817e-08
2.245112063e-08
2.239687271e-08
2.234365349e-08
2.229124435e-08
2.223933099e-08
2.218748166e-08
2.213512087e-08
2.208149758e-08
2.2025647e-08
2.196634452e-08
2.190205033e-08
2.183084338e-08
2.175034328e-08
2.165761889e-08
2.154908285e-08
2.14203722e-08
2.126621724e-08
2.108030414e-08
2.085514157e-08
2.058194911e-08
2.025059498e-08
1.98496262e-08
1.936645393e-08
1.878777876e-08
1.810036387e-08
1.729227948e-08
1.635473506e-08
1.528456078e-08
1.408726532e-08
1.278043081e-08
1.139674338e-08
2.37227762e-08
2.364152336e-08
2.355724431e-08
2.348710836e-08
2.342311579e-08
2.335922138e-08
2.3294801e-08
2.323083527e-08
2.316788202e-08
2.310605546e-08
2.3045396e-08
2.29860058e-08
2.292802655e-08
2.287160371e-08
2.281687501e-08
2.276396966e-08
2.271300645e-08
2.266408867e-08
2.261729718e-08
2.25726822e-08
2.253025376e-08
2.248997002e-08
2.245172299e-08
2.241532088e-08
2.238046627e-08
2.234672907e-08
2.231351347e-08
2.228001687e-08
2.224517923e-08
2.220762031e-08
2.216556272e-08
2.211673786e-08
2.205827131e-08
2.198654433e-08
2.189702832e-08
2.178409089e-08
2.164077391e-08
2.145854889e-08
2.122706297e-08
2.093390273e-08
2.056442398e-08
2.010172529e-08
1.95268888e-08
1.881966698e-08
1.795986176e-08
1.692970533e-08
1.571756402e-08
1.432310198e-08
1.276378214e-08
1.108115833e-08
2.37503546e-08
2.366939047e-08
2.358585198e-08
2.351690428e-08
2.345452039e-08
2.339265156e-08
2.33306847e-08
2.326961433e-08
2.321001296e-08
2.315201193e-08
2.309567268e-08
2.30411229e-08
2.298853491e-08
2.293809044e-08
2.288996995e-08
2.284435277e-08
2.280141614e-08
2.27613312e-08
2.272425707e-08
2.269033399e-08
2.265967505e-08
2.263235597e-08
2.26084022e-08
2.258777267e-08
2.257033916e-08
2.255586053e-08
2.254394998e-08
2.253403369e-08
2.252529816e-08
2.25166236e-08
2.25064996e-08
2.24929187e-08
2.247324206e-08
2.244403026e-08
2.240083189e-08
2.233792184e-08
2.224798139e-08
2.212171419e-08
2.194739897e-08
2.171039311e-08
2.139262557e-08
2.097216102e-08
2.042297787e-08
1.971520336e-08
1.881618665e-08
1.769299323e-08
1.631720556e-08
1.46731365e-08
1.277126322e-08
1.066311274e-08
2.377654164e-08
2.369584544e-08
2.361299395e-08
2.354514899e-08
2.34842595e-08
2.342427476e-08
2.336459341e-08
2.330622489e-08
2.324975777e-08
2.319534221e-08
2.314306258e-08
2.309307436e-08
2.304558297e-08
2.300080941e-08
2.29589804e-08
2.292032966e-08
2.288509804e-08
2.28535308e-08
2.28258732e-08
2.280236537e-08
2.278323593e-08
2.276869394e-08
2.27589183e-08
2.275404403e-08
2.27541446e-08
2.275920915e-08
2.276911268e-08
2.27835772e-08
2.280212118e-08
2.282399372e-08
2.284808889e-08
2.287283387e-08
2.289604271e-08
2.291472566e-08
2.29248406e-08
2.292097015e-08
2.289590389e-08
2.284010205e-08
2.274101623e-08
2.258224857e-08
2.234254917e-08
2.199469648e-08
2.150439852e-08
2.082949782e-08
1.991996372e-08
1.871942609e-08
1.716930407e-08
1.521711382e-08
1.283767356e-08
1.006634698e-08
2.380074676e-08
2.372029571e-08
2.363807237e-08
2.357123603e-08
2.351171455e-08
2.345345648e-08
2.339587247e-08
2.333998721e-08
2.328640603e-08
2.323529879e-08
2.318677374e-08
2.314101519e-08
2.309826294e-08
2.305877877e-08
2.302283756e-08
2.299072972e-08
2.296276264e-08
2.293925952e-08
2.292055676e-08
2.290700098e-08
2.289894514e-08
2.289674315e-08
2.290074257e-08
2.291127475e-08
2.292864157e-08
2.29530977e-08
2.298482636e-08
2.302390666e-08
2.307026967e-08
2.31236396e-08
2.318345457e-08
2.324875943e-08
2.3318061e-08
2.338913238e-08
2.345874768e-08
2.352232147e-08
2.357341813e-08
2.360308375e-08
2.359893773e-08
2.354394486e-08
2.341477624e-08
2.3179678e-08
2.279584441e-08
2.220652835e-08
2.133864206e-08
2.01023195e-08
1.839416128e-08
1.610306714e-08
1.31279702e-08
9.365906727e-09
2.382243024e-08
2.374219938e-08
2.366053971e-08
2.359460859e-08
2.353631586e-08
2.347961024e-08
2.342391415e-08
2.337026728e-08
2.331929168e-08
2.32711769e-08
2.3226055e-08
2.3184139e-08
2.314570297e-08
2.311104935e-08
2.308050117e-08
2.305440566e-08
2.303313714e-08
2.301709754e-08
2.300671598e-08
2.300244812e-08
2.300477505e-08
2.301420137e-08
2.303125186e-08
2.30564666e-08
2.309039352e-08
2.313357747e-08
2.318654418e-08
2.324977746e-08
2.332368685e-08
2.34085622e-08
2.350450974e-08
2.361136215e-08
2.372855227e-08
2.385493572e-08
2.398854071e-08
2.412621325e-08
2.426311148e-08
2.439198027e-08
2.450210236e-08
2.457776896e-08
2.459603235e-08
2.452338812e-08
2.431089671e-08
2.388718157e-08
2.314913759e-08
2.195236735e-08
2.010820491e-08
1.740419749e-08
1.369285581e-08
8.743734599e-09
2.38411079e-08
2.376107006e-08
2.367990383e-08
2.361476525e-08
2.355754908e-08
2.350220487e-08
2.344816604e-08
2.339648645e-08
2.334780408e-08
2.330232728e-08
2.326021084e-08
2.32216951e-08
2.318708682e-08
2.315672736e-08
2.313098588e-08
2.311026416e-08
2.309500102e-08
2.308567468e-08
2.308280447e-08
2.308695276e-08
2.309872688e-08
2.311878088e-08
2.314781696e-08
2.318658619e-08
2.32358879e-08
2.329656696e-08
2.336950808e-08
2.345562584e-08
2.355584817e-08
2.367109017e-08
2.380221397e-08
2.394996821e-08
2.411489801e-08
2.429721146e-08
2.449658219e-08
2.471185658e-08
2.494061765e-08
2.517853076e-08
2.541834986e-08
2.564838419e-08
2.585008268e-08
2.599412893e-08
2.60339276e-08
2.589435688e-08
2.54516881e-08
2.449685609e-08
2.267121595e-08
1.940140239e-08
1.403520134e-08
5.888763307e-09
2.385635593e-08
2.377648173e-08
2.369573317e-08
2.363126545e-08
2.357496119e-08
2.352077114e-08
2.346813853e-08
2.341812993e-08
2.337139776e-08
2.332816743e-08
2.328861429e-08
2.325300348e-08
2.322167151e-08
2.319499515e-08
2.317338565e-08
2.315729472e-08
2.31472204e-08
2.314371123e-08
2.314737004e-08
2.315885835e-08
2.317890142e-08
2.320829386e-08
2.324790584e-08
2.329868975e-08
2.336168683e-08
2.343803352e-08
2.352896731e-08
2.363583124e-08
2.376007574e-08
2.390325574e-08
2.406702019e-08
2.425309006e-08
2.446321791e-08
2.469911897e-08
2.496235826e-08
2.525416999e-08
2.557517158e-08
2.592491296e-08
2.630116396e-08
2.669877584e-08
2.710783299e-08
2.7510573e-08
2.787605492e-08
2.815041172e-08
2.823760545e-08
2.795729183e-08
2.694086837e-08
2.433277914e-08
1.765505912e-08
-1.360774285e-09
2.386781551e-08
2.378807366e-08
2.370766212e-08
2.364373562e-08
2.358816759e-08
2.353491001e-08
2.348341433e-08
2.343475785e-08
2.338960533e-08
2.334819667e-08
2.331072475e-08
2.327747587e-08
2.324881191e-08
2.322513995e-08
2.320690729e-08
2.319460848e-08
2.318879264e-08
2.319006905e-08
2.319911288e-08
2.321667181e-08
2.324357401e-08
2.328073788e-08
2.332918269e-08
2.33900403e-08
2.34645687e-08
2.355416752e-08
2.366039535e-08
2.378498879e-08
2.392988285e-08
2.409723221e-08
2.428943236e-08
2.450913881e-08
2.475928143e-08
2.504306847e-08