/*--------------------------------*- C++ -*----------------------------------*\
| =========                 |                                                 |
| \\      /  F ield         | foam-extend: Open Source CFD                    |
|  \\    /   O peration     | Version:     4.1                                |
|   \\  /    A nd           | Web:         http://www.foam-extend.org         |
|    \\/     M anipulation  |                                                 |
\*---------------------------------------------------------------------------*/
FoamFile
{
    version     2.0;
    format      ascii;
    class       volVectorField;
    location    "500000";
    object      U;
}
// * * * * * * * * * * * * * * * * * * * * * * * * * * * * * * * * * * * * * //

dimensions      [0 1 -1 0 0 0 0];

internalField   nonuniform List<vector> 
15920
(
(0.0002113865334 5.278357501e-06 0)
(0.0002076909642 7.556842356e-06 0)
(0.0002007751747 8.221706408e-06 0)
(0.000191889206 8.405857783e-06 0)
(0.0001828091846 8.375546162e-06 0)
(0.000174053455 8.16482975e-06 0)
(0.0001655991459 7.818717027e-06 0)
(0.0001574196081 7.389189429e-06 0)
(0.0001495541198 6.91441021e-06 0)
(0.0001420499962 6.418216243e-06 0)
(0.0001349352535 5.916028233e-06 0)
(0.0001282224237 5.418635583e-06 0)
(0.000121916471 4.933753225e-06 0)
(0.0001160179711 4.466829398e-06 0)
(0.0001105236415 4.021667325e-06 0)
(0.0001054266147 3.600888224e-06 0)
(0.0001007169555 3.206232247e-06 0)
(9.638221597e-05 2.838747699e-06 0)
(9.240790976e-05 2.498913231e-06 0)
(8.877792082e-05 2.186729642e-06 0)
(8.547487788e-05 1.901795247e-06 0)
(8.248050651e-05 1.643370921e-06 0)
(7.977595856e-05 1.41043963e-06 0)
(7.73421147e-05 1.201762832e-06 0)
(7.51598565e-05 1.015933928e-06 0)
(7.321030633e-05 8.514271107e-07 0)
(7.147503248e-05 7.066443261e-07 0)
(6.993621655e-05 5.799601817e-07 0)
(6.857678391e-05 4.697596869e-07 0)
(6.738050078e-05 3.744694503e-07 0)
(6.633203997e-05 2.925824563e-07 0)
(6.541701794e-05 2.226765965e-07 0)
(6.46220067e-05 1.634274459e-07 0)
(6.393452464e-05 1.136159473e-07 0)
(6.334301008e-05 7.21317477e-08 0)
(6.283678172e-05 3.797294503e-08 0)
(6.240598941e-05 1.024297466e-08 0)
(6.204155872e-05 -1.185469976e-08 0)
(6.173513211e-05 -2.902349139e-08 0)
(6.147900931e-05 -4.188175955e-08 0)
(6.126608884e-05 -5.097158208e-08 0)
(6.108981247e-05 -5.67672314e-08 0)
(6.094411313e-05 -5.96826151e-08 0)
(6.082336734e-05 -6.007792044e-08 0)
(6.072235393e-05 -5.826582218e-08 0)
(6.063622175e-05 -5.451731722e-08 0)
(6.056046431e-05 -4.906448837e-08 0)
(6.04908966e-05 -4.210348532e-08 0)
(6.042363412e-05 -3.380562236e-08 0)
(6.035507672e-05 -2.432835385e-08 0)
(0.0002195085658 7.260480664e-06 0)
(0.0002216987683 1.0765767e-05 0)
(0.0002231316817 1.210409565e-05 0)
(0.0002233119798 1.275659765e-05 0)
(0.0002226550385 1.310729824e-05 0)
(0.0002214773738 1.3200559e-05 0)
(0.0002198719909 1.308519814e-05 0)
(0.0002178841154 1.28247337e-05 0)
(0.000215581376 1.246630145e-05 0)
(0.0002130369091 1.203827612e-05 0)
(0.0002103131102 1.155890294e-05 0)
(0.0002074609614 1.104186223e-05 0)
(0.0002045237337 1.049819693e-05 0)
(0.0002015390657 9.937005145e-06 0)
(0.0001985395898 9.365933356e-06 0)
(0.000195553274 8.791555588e-06 0)
(0.0001926038605 8.219600183e-06 0)
(0.0001897113252 7.655065651e-06 0)
(0.000186892292 7.102285105e-06 0)
(0.0001841603962 6.564962639e-06 0)
(0.0001815266061 6.046197324e-06 0)
(0.0001789995151 5.548506252e-06 0)
(0.0001765856098 5.073852024e-06 0)
(0.0001742895162 4.623676831e-06 0)
(0.000172114224 4.19894375e-06 0)
(0.0001700612936 3.800184899e-06 0)
(0.0001681310477 3.427551197e-06 0)
(0.0001663227396 3.080862228e-06 0)
(0.0001646347026 2.759659213e-06 0)
(0.0001630644847 2.463258073e-06 0)
(0.0001616089673 2.190800149e-06 0)
(0.0001602644702 1.941299224e-06 0)
(0.0001590268432 1.713683929e-06 0)
(0.0001578915454 1.506834875e-06 0)
(0.0001568537141 1.319616107e-06 0)
(0.0001559082233 1.150900785e-06 0)
(0.0001550497355 9.995912282e-07 0)
(0.0001542727442 8.646336451e-07 0)
(0.000153571612 7.450280966e-07 0)
(0.0001529406035 6.398339108e-07 0)
(0.0001523739136 5.481710097e-07 0)
(0.0001518656953 4.692192053e-07 0)
(0.0001514100834 4.022159238e-07 0)
(0.0001510012169 3.464510063e-07 0)
(0.0001506332617 3.01258562e-07 0)
(0.0001503004377 2.660069567e-07 0)
(0.0001499970468 2.401033618e-07 0)
(0.0001497174886 2.229898527e-07 0)
(0.0001494562757 2.141310321e-07 0)
(0.0001492080538 2.130073417e-07 0)
(0.0002191105529 3.58370209e-06 0)
(0.000220734467 6.438655127e-06 0)
(0.0002227580524 8.378603712e-06 0)
(0.0002245721352 9.796777955e-06 0)
(0.0002260575343 1.089056689e-05 0)
(0.0002272714603 1.16983795e-05 0)
(0.0002282357345 1.224626703e-05 0)
(0.0002289425613 1.257736767e-05 0)
(0.0002293946825 1.273247254e-05 0)
(0.0002296093851 1.274233487e-05 0)
(0.0002296088081 1.263077544e-05 0)
(0.0002294150543 1.241802967e-05 0)
(0.0002290497809 1.212191909e-05 0)
(0.000228534432 1.175812816e-05 0)
(0.0002278900093 1.134043323e-05 0)
(0.0002271367019 1.088096368e-05 0)
(0.0002262936386 1.039041557e-05 0)
(0.0002253787649 9.878200659e-06 0)
(0.0002244087744 9.352558094e-06 0)
(0.0002233990555 8.820642651e-06 0)
(0.0002223636642 8.288600965e-06 0)
(0.0002213153212 7.761643797e-06 0)
(0.0002202654294 7.244118254e-06 0)
(0.0002192241058 6.739581835e-06 0)
(0.000218200225 6.250878915e-06 0)
(0.0002172014724 5.780219683e-06 0)
(0.000216234399 5.329257815e-06 0)
(0.0002153044844 4.899165349e-06 0)
(0.0002144162073 4.4907065e-06 0)
(0.0002135731149 4.104308075e-06 0)
(0.0002127778917 3.740124666e-06 0)
(0.000212032427 3.398097542e-06 0)
(0.00021133788 3.078006658e-06 0)
(0.0002106947417 2.779515428e-06 0)
(0.0002101028938 2.502208201e-06 0)
(0.0002095616626 2.245620619e-06 0)
(0.0002090698709 2.009263252e-06 0)
(0.0002086258848 1.792639163e-06 0)
(0.0002082276581 1.595256577e-06 0)
(0.0002078727722 1.416635101e-06 0)
(0.0002075584762 1.256306458e-06 0)
(0.000207281725 1.113817255e-06 0)
(0.0002070392143 9.88729931e-07 0)
(0.0002068274108 8.806141025e-07 0)
(0.0002066425844 7.890281872e-07 0)
(0.0002064808579 7.13472803e-07 0)
(0.0002063382481 6.534730629e-07 0)
(0.0002062106796 6.085453881e-07 0)
(0.0002060940134 5.781770374e-07 0)
(0.0002059840839 5.618313701e-07 0)
(0.0002188443758 2.555640365e-06 0)
(0.0002198316271 4.931231888e-06 0)
(0.0002212621151 6.808858333e-06 0)
(0.0002227912446 8.249573699e-06 0)
(0.0002242844449 9.370918461e-06 0)
(0.0002257283984 1.023788453e-05 0)
(0.0002271167104 1.088435155e-05 0)
(0.0002284270249 1.134117458e-05 0)
(0.0002296385806 1.16380154e-05 0)
(0.0002307404899 1.179933572e-05 0)
(0.0002317286768 1.184445452e-05 0)
(0.0002326021959 1.178939999e-05 0)
(0.0002333621178 1.164813962e-05 0)
(0.000234011458 1.143310153e-05 0)
(0.0002345549786 1.115545369e-05 0)
(0.0002349988196 1.08253219e-05 0)
(0.0002353501487 1.045195029e-05 0)
(0.0002356168803 1.004379715e-05 0)
(0.0002358074363 9.608581875e-06 0)
(0.0002359305286 9.153311461e-06 0)
(0.000235994966 8.684299916e-06 0)
(0.0002360094862 8.207186077e-06 0)
(0.0002359826143 7.726953975e-06 0)
(0.000235922543 7.247958746e-06 0)
(0.0002358370365 6.773959006e-06 0)
(0.0002357333542 6.308155121e-06 0)
(0.0002356181928 5.853234759e-06 0)
(0.000235497648 5.411424088e-06 0)
(0.0002353771913 4.984539872e-06 0)
(0.0002352616597 4.574041584e-06 0)
(0.0002351552553 4.181082334e-06 0)
(0.0002350615545 3.806557228e-06 0)
(0.0002349835228 3.451148016e-06 0)
(0.0002349235367 3.115363234e-06 0)
(0.0002348834072 2.799573233e-06 0)
(0.000234864408 2.504040107e-06 0)
(0.0002348673036 2.22894155e-06 0)
(0.0002348923806 1.974389528e-06 0)
(0.000234939476 1.740450066e-06 0)
(0.0002350080049 1.527147514e-06 0)
(0.0002350969949 1.334457924e-06 0)
(0.000235205125 1.162320083e-06 0)
(0.0002353307481 1.010652289e-06 0)
(0.0002354719044 8.793597474e-07 0)
(0.0002356263143 7.683422203e-07 0)
(0.0002357915498 6.77243698e-07 0)
(0.0002359650538 6.057730299e-07 0)
(0.0002361440473 5.535652098e-07 0)
(0.0002363255981 5.201687408e-07 0)
(0.0002365066743 5.050706592e-07 0)
(0.00021871869 1.860076288e-06 0)
(0.0002193443807 3.6811249e-06 0)
(0.0002203093721 5.23702139e-06 0)
(0.0002214358579 6.50963428e-06 0)
(0.0002226346709 7.545587369e-06 0)
(0.0002238725703 8.385410428e-06 0)
(0.0002251298304 9.052031556e-06 0)
(0.0002263849888 9.563244337e-06 0)
(0.0002276184627 9.936996478e-06 0)
(0.0002288163545 1.018997952e-05 0)
(0.0002299695521 1.033645941e-05 0)
(0.0002310716369 1.038865616e-05 0)
(0.0002321178822 1.035743482e-05 0)
(0.0002331050697 1.025269351e-05 0)
(0.0002340314255 1.008354449e-05 0)
(0.0002348964736 9.858437002e-06 0)
(0.000235700869 9.585249511e-06 0)
(0.0002364462503 9.271345135e-06 0)
(0.0002371351061 8.923595296e-06 0)
(0.0002377706409 8.548385927e-06 0)
(0.0002383566396 8.151616484e-06 0)
(0.0002388973328 7.738697489e-06 0)
(0.0002393972673 7.314550801e-06 0)
(0.000239861185 6.883615158e-06 0)
(0.0002402939101 6.44985837e-06 0)
(0.0002407002494 6.016796672e-06 0)
(0.0002410849027 5.587521119e-06 0)
(0.0002414523882 5.164729534e-06 0)
(0.0002418069798 4.750761756e-06 0)
(0.000242152657 4.347636886e-06 0)
(0.0002424930657 3.95709129e-06 0)
(0.0002428314895 3.580615989e-06 0)
(0.0002431708305 3.219492354e-06 0)
(0.0002435135965 2.87482539e-06 0)
(0.0002438618965 2.547571661e-06 0)
(0.0002442174396 2.238566649e-06 0)
(0.0002445815388 1.948541725e-06 0)
(0.0002449551259 1.678136769e-06 0)
(0.0002453387564 1.427936927e-06 0)
(0.0002457326012 1.19846336e-06 0)
(0.0002461364779 9.901709707e-07 0)
(0.0002465499085 8.034544447e-07 0)
(0.0002469721424 6.386178289e-07 0)
(0.0002474021697 4.95846695e-07 0)
(0.0002478384679 3.752125971e-07 0)
(0.000248280209 2.768029388e-07 0)
(0.000248725686 2.006320528e-07 0)
(0.0002491725757 1.466481697e-07 0)
(0.0002496184086 1.147138196e-07 0)
(0.0002500606228 1.045740083e-07 0)
(0.0002186614659 1.435472576e-06 0)
(0.0002191058802 2.87739211e-06 0)
(0.0002197989508 4.174742021e-06 0)
(0.0002206394085 5.291148094e-06 0)
(0.0002215783782 6.232123066e-06 0)
(0.0002225856356 7.014212378e-06 0)
(0.0002236377152 7.650880921e-06 0)
(0.0002247146683 8.153773885e-06 0)
(0.0002258001599 8.535167765e-06 0)
(0.0002268818707 8.807515579e-06 0)
(0.0002279508293 8.982371882e-06 0)
(0.0002290002975 9.070102785e-06 0)
(0.0002300250264 9.080082387e-06 0)
(0.0002310209533 9.020900944e-06 0)
(0.0002319850698 8.900483751e-06 0)
(0.0002329153104 8.726173209e-06 0)
(0.0002338104475 8.504799881e-06 0)
(0.0002346700061 8.242738437e-06 0)
(0.000235494193 7.945944734e-06 0)
(0.0002362838281 7.619977754e-06 0)
(0.0002370402726 7.270012211e-06 0)
(0.0002377653527 6.900846382e-06 0)
(0.0002384612814 6.516908671e-06 0)
(0.0002391305779 6.122265117e-06 0)
(0.0002397759885 5.720629506e-06 0)
(0.0002404004098 5.315377085e-06 0)
(0.0002410068161 4.909562179e-06 0)
(0.0002415981926 4.505939281e-06 0)
(0.000242177475 4.10698681e-06 0)
(0.0002427474967 3.714932584e-06 0)
(0.000243310943 3.331780115e-06 0)
(0.0002438703127 2.959334384e-06 0)
(0.0002444278872 2.599225859e-06 0)
(0.0002449857039 2.252938156e-06 0)
(0.0002455455381 1.921822251e-06 0)
(0.0002461088852 1.607124346e-06 0)
(0.0002466769433 1.30998015e-06 0)
(0.0002472506207 1.031471004e-06 0)
(0.0002478305417 7.7266442e-07 0)
(0.0002484170181 5.345330036e-07 0)
(0.0002490099737 3.177095301e-07 0)
(0.0002496091239 1.22725665e-07 0)
(0.0002502140068 -4.972189254e-08 0)
(0.0002508238514 -1.99070686e-07 0)
(0.0002514379011 -3.248883804e-07 0)
(0.000252054257 -4.264833314e-07 0)
(0.0002526713922 -5.035971956e-07 0)
(0.0002532880239 -5.561315825e-07 0)
(0.0002539027046 -5.840837346e-07 0)
(0.0002545138093 -5.875870397e-07 0)
(0.0002186304061 1.142023415e-06 0)
(0.0002189719118 2.302733178e-06 0)
(0.0002194971129 3.375982897e-06 0)
(0.0002201409119 4.328911254e-06 0)
(0.0002208830045 5.152880117e-06 0)
(0.0002217033619 5.851636259e-06 0)
(0.0002225799224 6.431706084e-06 0)
(0.0002234936633 6.900065005e-06 0)
(0.0002244297908 7.264514697e-06 0)
(0.0002253769655 7.533510546e-06 0)
(0.0002263264465 7.71550394e-06 0)
(0.0002272714448 7.818528303e-06 0)
(0.0002282066601 7.850119281e-06 0)
(0.0002291279793 7.817353373e-06 0)
(0.0002300322794 7.726884087e-06 0)
(0.0002309172814 7.584967524e-06 0)
(0.0002317814326 7.397488837e-06 0)
(0.0002326238146 7.169988301e-06 0)
(0.0002334440709 6.907681996e-06 0)
(0.0002342423445 6.615475965e-06 0)
(0.0002350192203 6.297975677e-06 0)
(0.0002357756689 5.959493052e-06 0)
(0.0002365129903 5.604052636e-06 0)
(0.0002372327576 5.235398506e-06 0)
(0.0002379367606 4.857002947e-06 0)
(0.0002386269509 4.47207745e-06 0)
(0.0002393053874 4.083586244e-06 0)
(0.0002399741857 3.694262193e-06 0)
(0.0002406354697 3.306624663e-06 0)
(0.0002412913274 2.922998185e-06 0)
(0.0002419437705 2.545531923e-06 0)
(0.0002425946978 2.176218396e-06 0)
(0.0002432458687 1.816907869e-06 0)
(0.000243898869 1.469334137e-06 0)
(0.0002445550746 1.13516104e-06 0)
(0.0002452156249 8.160666985e-07 0)
(0.0002458814569 5.136958071e-07 0)
(0.0002465524649 2.290160566e-07 0)
(0.0002472291158 -3.678880139e-08 0)
(0.0002479118309 -2.824795908e-07 0)
(0.0002486008217 -5.066917378e-07 0)
(0.0002492959249 -7.081994012e-07 0)
(0.0002499965999 -8.861538414e-07 0)
(0.0002507021412 -1.039748185e-06 0)
(0.0002514116867 -1.168236318e-06 0)
(0.0002521241178 -1.271187912e-06 0)
(0.0002528380998 -1.348172566e-06 0)
(0.0002535521957 -1.398900125e-06 0)
(0.0002542648396 -1.42324867e-06 0)
(0.0002549743369 -1.421251665e-06 0)
(0.0002186112781 9.246088033e-07 0)
(0.0002188883533 1.870294665e-06 0)
(0.0002193041727 2.758895804e-06 0)
(0.0002198119104 3.565010713e-06 0)
(0.0002204090755 4.276809992e-06 0)
(0.0002210851159 4.891593958e-06 0)
(0.0002218214679 5.410649991e-06 0)
(0.0002226007936 5.836970579e-06 0)
(0.0002234097394 6.174803002e-06 0)
(0.0002242380086 6.429394133e-06 0)
(0.0002250773468 6.606535358e-06 0)
(0.0002259210928 6.712162724e-06 0)
(0.0002267639424 6.752146847e-06 0)
(0.0002276017398 6.732208432e-06 0)
(0.0002284312919 6.657877457e-06 0)
(0.0002292502185 6.534466923e-06 0)
(0.0002300568341 6.367058458e-06 0)
(0.0002308500542 6.160497429e-06 0)
(0.0002316293176 5.91939283e-06 0)
(0.0002323945209 5.648118734e-06 0)
(0.0002331459603 5.350816395e-06 0)
(0.0002338842776 5.031397188e-06 0)
(0.000234610409 4.693546761e-06 0)
(0.0002353255364 4.34073083e-06 0)
(0.0002360310392 3.976202893e-06 0)
(0.0002367284482 3.603013996e-06 0)
(0.0002374194004 3.224024522e-06 0)
(0.0002381055964 2.841917166e-06 0)
(0.0002387887585 2.45921217e-06 0)
(0.0002394705926 2.078281532e-06 0)
(0.0002401527503 1.701363077e-06 0)
(0.0002408367904 1.330579902e-06 0)
(0.000241524124 9.680926299e-07 0)
(0.0002422160623 6.16078261e-07 0)
(0.0002429130782 2.761581003e-07 0)
(0.0002436157347 -5.017342886e-08 0)
(0.000244325089 -3.610981555e-07 0)
(0.0002450426201 -6.544366723e-07 0)
(0.000245768666 -9.286500953e-07 0)
(0.0002465031402 -1.182450813e-06 0)
(0.0002472458071 -1.414562152e-06 0)
(0.0002479962405 -1.62372568e-06 0)
(0.0002487538116 -1.808732942e-06 0)
(0.0002495176683 -1.968473231e-06 0)
(0.0002502867382 -2.101965966e-06 0)
(0.0002510597408 -2.208405585e-06 0)
(0.0002518352036 -2.287116388e-06 0)
(0.0002526114904 -2.337596655e-06 0)
(0.0002533868275 -2.359541001e-06 0)
(0.0002541593257 -2.352838013e-06 0)
(0.0002185985578 7.560935914e-07 0)
(0.0002188324377 1.532402129e-06 0)
(0.0002191732117 2.269194752e-06 0)
(0.0002195838544 2.947209516e-06 0)
(0.0002200726981 3.555009604e-06 0)
(0.0002206363834 4.087265283e-06 0)
(0.0002212602315 4.542243537e-06 0)
(0.0002219292053 4.920307854e-06 0)
(0.0002226316472 5.223309496e-06 0)
(0.0002233584997 5.454239686e-06 0)
(0.0002241022653 5.616862034e-06 0)
(0.0002248566604 5.715374996e-06 0)
(0.0002256165352 5.754180312e-06 0)
(0.0002263777706 5.737747675e-06 0)
(0.0002271371395 5.670532638e-06 0)
(0.0002278921801 5.556921023e-06 0)
(0.0002286410924 5.401190849e-06 0)
(0.0002293826548 5.207487792e-06 0)
(0.0002301161513 4.979810039e-06 0)
(0.0002308413086 4.721999083e-06 0)
(0.0002315582389 4.437734493e-06 0)
(0.0002322673876 4.130531788e-06 0)
(0.0002329694846 3.803743027e-06 0)
(0.0002336654975 3.460559923e-06 0)
(0.0002343565872 3.104019331e-06 0)
(0.0002350440647 2.737010274e-06 0)
(0.0002357293495 2.362284107e-06 0)
(0.0002364139293 1.982463406e-06 0)
(0.00023709932 1.600057828e-06 0)
(0.0002377870165 1.217508589e-06 0)
(0.0002384784475 8.373075445e-07 0)
(0.0002391751232 4.619737079e-07 0)
(0.0002398771439 9.297184645e-08 0)
(0.0002405859469 -2.674700065e-07 0)
(0.0002413034068 -6.167994287e-07 0)
(0.0002420308495 -9.527888937e-07 0)
(0.0002427686192 -1.273811199e-06 0)
(0.0002435169998 -1.578187994e-06 0)
(0.0002442761504 -1.864121665e-06 0)
(0.0002450460438 -2.129799214e-06 0)
(0.0002458264016 -2.373459404e-06 0)
(0.000246616676 -2.593423791e-06 0)
(0.0002474160572 -2.788134879e-06 0)
(0.0002482234813 -2.956179311e-06 0)
(0.0002490376456 -3.096304025e-06 0)
(0.0002498570261 -3.207434214e-06 0)
(0.0002506798952 -3.288687623e-06 0)
(0.0002515043475 -3.339389148e-06 0)
(0.0002523283315 -3.359085733e-06 0)
(0.0002531496802 -3.347554407e-06 0)
(0.0002185895854 6.210618389e-07 0)
(0.000218792867 1.260296208e-06 0)
(0.0002190797281 1.870863089e-06 0)
(0.0002194187986 2.438001321e-06 0)
(0.0002198251518 2.951721207e-06 0)
(0.0002203005304 3.406056235e-06 0)
(0.0002208336322 3.797838191e-06 0)
(0.0002214117344 4.125844217e-06 0)
(0.0002220249063 4.390312826e-06 0)
(0.0002226653853 4.592615429e-06 0)
(0.0002233265737 4.73495922e-06 0)
(0.0002240027594 4.820119866e-06 0)
(0.0002246891325 4.851234523e-06 0)
(0.0002253817623 4.831658226e-06 0)
(0.0002260775093 4.764865306e-06 0)
(0.000226773927 4.654378726e-06 0)
(0.00022746918 4.503718488e-06 0)
(0.0002281619749 4.316364686e-06 0)
(0.0002288514993 4.095731688e-06 0)
(0.0002295373656 3.845150479e-06 0)
(0.0002302195591 3.567856995e-06 0)
(0.0002308983899 3.266985176e-06 0)
(0.000231574448 2.945563942e-06 0)
(0.0002322485593 2.606516888e-06 0)
(0.0002329217437 2.252666223e-06 0)
(0.0002335951747 1.886735682e-06 0)
(0.0002342701375 1.511365553e-06 0)
(0.0002349479812 1.129170691e-06 0)
(0.0002356301123 7.428292645e-07 0)
(0.0002363177854 3.548219853e-07 0)
(0.0002370115763 -3.304399017e-08 0)
(0.0002377130712 -4.182494142e-07 0)
(0.0002384248668 -7.976746951e-07 0)
(0.0002391477692 -1.169354451e-06 0)
(0.0002398825106 -1.531345759e-06 0)
(0.0002406297877 -1.881543494e-06 0)
(0.0002413901814 -2.21772882e-06 0)
(0.0002421640664 -2.537641321e-06 0)
(0.0002429515596 -2.839035515e-06 0)
(0.0002437525012 -3.119736946e-06 0)
(0.0002445664481 -3.377665793e-06 0)
(0.0002453926731 -3.610848038e-06 0)
(0.0002462301694 -3.817433169e-06 0)
(0.0002470776578 -3.99571528e-06 0)
(0.0002479335969 -4.144156921e-06 0)
(0.000248796199 -4.261414986e-06 0)
(0.0002496634507 -4.34636562e-06 0)
(0.0002505331412 -4.398124742e-06 0)
(0.0002514028969 -4.41606712e-06 0)
(0.0002522702181 -4.399840696e-06 0)
(0.0002185829695 5.101651837e-07 0)
(0.0002187636348 1.036102824e-06 0)
(0.0002190102888 1.540475252e-06 0)
(0.0002192950525 2.011756634e-06 0)
(0.0002196373439 2.44149633e-06 0)
(0.0002200424412 2.823922695e-06 0)
(0.0002205016918 3.155318827e-06 0)
(0.0002210044035 3.433579225e-06 0)
(0.0002215422478 3.657900805e-06 0)
(0.0002221087158 3.828530221e-06 0)
(0.0002226981509 3.946532371e-06 0)
(0.0002233055148 4.013582139e-06 0)
(0.0002239264621 4.031792201e-06 0)
(0.000224557373 4.003580745e-06 0)
(0.0002251953061 3.931572492e-06 0)
(0.0002258379294 3.818524017e-06 0)
(0.0002264834591 3.66726704e-06 0)
(0.0002271306078 3.480665825e-06 0)
(0.0002277785352 3.261585852e-06 0)
(0.000228426802 3.012871324e-06 0)
(0.0002290753259 2.737329611e-06 0)
(0.0002297243387 2.437720648e-06 0)
(0.0002303743457 2.116752463e-06 0)
(0.0002310260868 1.77707654e-06 0)
(0.0002316804944 1.421299195e-06 0)
(0.0002323386507 1.052038912e-06 0)
(0.0002330018071 6.719924351e-07 0)
(0.000233670997 2.835355517e-07 0)
(0.0002343470319 -1.113191419e-07 0)
(0.0002350317617 -5.098091916e-07 0)
(0.0002357274922 -9.088883263e-07 0)
(0.0002364351357 -1.306533379e-06 0)
(0.0002371557371 -1.700572519e-06 0)
(0.000237890382 -2.0886272e-06 0)
(0.0002386400464 -2.46819469e-06 0)
(0.000239405512 -2.836704563e-06 0)
(0.0002401873303 -3.191582234e-06 0)
(0.0002409857948 -3.530277736e-06 0)
(0.0002418009233 -3.850275094e-06 0)
(0.0002426324476 -4.149102324e-06 0)
(0.0002434798033 -4.42434772e-06 0)
(0.0002443421189 -4.67368299e-06 0)
(0.0002452182105 -4.894893173e-06 0)
(0.0002461065833 -5.085911139e-06 0)
(0.0002470054405 -5.244853821e-06 0)
(0.0002479127001 -5.370058099e-06 0)
(0.0002488260201 -5.460114462e-06 0)
(0.0002497428314 -5.513896814e-06 0)
(0.0002506603781 -5.530587812e-06 0)
(0.000251575763 -5.509697916e-06 0)
(0.0002185779158 4.173684796e-07 0)
(0.0002187412797 8.480827571e-07 0)
(0.000218956988 1.262097304e-06 0)
(0.0002191994428 1.65022022e-06 0)
(0.0002194909703 2.005342479e-06 0)
(0.000219839306 2.322181215e-06 0)
(0.0002202377972 2.596937969e-06 0)
(0.0002206774226 2.827083778e-06 0)
(0.0002211512514 3.01118695e-06 0)
(0.0002216539172 3.148740182e-06 0)
(0.0002221806671 3.23998909e-06 0)
(0.0002227271554 3.285773567e-06 0)
(0.0002232895546 3.287390915e-06 0)
(0.0002238646244 3.246483691e-06 0)
(0.0002244496947 3.164950356e-06 0)
(0.0002250426214 3.044874673e-06 0)
(0.000225641744 2.88847023e-06 0)
(0.0002262458486 2.698037376e-06 0)
(0.0002268541316 2.475930534e-06 0)
(0.0002274661636 2.224533385e-06 0)
(0.0002280818522 1.946242743e-06 0)
(0.0002287014073 1.643453564e-06 0)
(0.0002293253019 1.318563631e-06 0)
(0.000229954236 9.740209709e-07 0)
(0.0002305891673 6.123696513e-07 0)
(0.0002312308773 2.358022798e-07 0)
(0.0002318801786 -1.536565231e-07 0)
(0.0002325389133 -5.532162423e-07 0)
(0.000233209068 -9.600399566e-07 0)
(0.0002338917078 -1.372064402e-06 0)
(0.00023458808 -1.787057533e-06 0)
(0.0002352995162 -2.202563876e-06 0)
(0.000236027305 -2.615953152e-06 0)
(0.0002367726099 -3.024518072e-06 0)
(0.0002375364132 -3.425515098e-06 0)
(0.0002383194844 -3.816166022e-06 0)
(0.0002391223597 -4.193658721e-06 0)
(0.0002399453183 -4.555151194e-06 0)
(0.0002407883542 -4.897782552e-06 0)
(0.0002416511497 -5.218694706e-06 0)
(0.0002425330517 -5.515063828e-06 0)
(0.0002434330552 -5.784137754e-06 0)
(0.0002443497935 -6.023277359e-06 0)
(0.0002452815376 -6.230000982e-06 0)
(0.0002462262053 -6.402030509e-06 0)
(0.0002471813801 -6.537337388e-06 0)
(0.0002481443402 -6.634186646e-06 0)
(0.0002491120975 -6.691176845e-06 0)
(0.0002500814454 -6.707273955e-06 0)
(0.0002510490149 -6.681837096e-06 0)
(0.0002185739401 3.385915446e-07 0)
(0.0002187236799 6.882124664e-07 0)
(0.0002189149141 1.024589183e-06 0)
(0.0002191236098 1.340235203e-06 0)
(0.0002193741126 1.629137486e-06 0)
(0.0002196758915 1.886562156e-06 0)
(0.0002200237829 2.108848849e-06 0)
(0.0002204100941 2.293314909e-06 0)
(0.0002208290656 2.438171879e-06 0)
(0.0002212763285 2.542417431e-06 0)
(0.0002217479535 2.605714893e-06 0)
(0.0002222402577 2.628276365e-06 0)
(0.0002227499372 2.610757629e-06 0)
(0.0002232741589 2.554167836e-06 0)
(0.0002238105651 2.459793896e-06 0)
(0.0002243572469 2.329138208e-06 0)
(0.0002249127178 2.163868003e-06 0)
(0.0002254758895 1.965774576e-06 0)
(0.0002260460469 1.736743458e-06 0)
(0.0002266228218 1.478726605e-06 0)
(0.0002272061599 1.193737918e-06 0)
(0.0002277962939 8.838848519e-07 0)
(0.0002283937791 5.513930358e-07 0)
(0.0002289990731 1.981597019e-07 0)
(0.0002296128275 -1.739448715e-07 0)
(0.0002302366571 -5.623156867e-07 0)
(0.0002308722297 -9.644070429e-07 0)
(0.0002315206246 -1.378263458e-06 0)
(0.0002321831594 -1.801744206e-06 0)
(0.0002328612988 -2.232478543e-06 0)
(0.0002335565391 -2.667911779e-06 0)
(0.000234270329 -3.105383132e-06 0)
(0.0002350040148 -3.542149188e-06 0)
(0.0002357588091 -3.975383815e-06 0)
(0.0002365357617 -4.402166323e-06 0)
(0.0002373357234 -4.819472685e-06 0)
(0.0002381593064 -5.224178955e-06 0)
(0.0002390068443 -5.613076926e-06 0)
(0.0002398783521 -5.982898509e-06 0)
(0.0002407734904 -6.330347416e-06 0)
(0.0002416915356 -6.652137853e-06 0)
(0.0002426313571 -6.945039517e-06 0)
(0.000243591403 -7.205928306e-06 0)
(0.0002445696964 -7.431841906e-06 0)
(0.0002455638417 -7.620038729e-06 0)
(0.0002465710452 -7.768057919e-06 0)
(0.0002475881475 -7.873777716e-06 0)
(0.00024861167 -7.935469139e-06 0)
(0.0002496378724 -7.951841987e-06 0)
(0.0002506628221 -7.922080221e-06 0)
(0.0002185707317 2.70976644e-07 0)
(0.0002187094694 5.5083068e-07 0)
(0.000218880876 8.199666823e-07 0)
(0.0002190620377 1.072161943e-06 0)
(0.0002192787504 1.30227597e-06 0)
(0.0002195417289 1.506088548e-06 0)
(0.0002198469171 1.680162391e-06 0)
(0.0002201876619 1.821807158e-06 0)
(0.0002205591624 1.929048425e-06 0)
(0.000220957898 2.000565869e-06 0)
(0.0002213806652 2.035612496e-06 0)
(0.0002218243883 2.033931126e-06 0)
(0.0002222862638 1.995675963e-06 0)
(0.000222763865 1.921342374e-06 0)
(0.0002232551609 1.811705537e-06 0)
(0.0002237585027 1.667768351e-06 0)
(0.0002242726078 1.490717735e-06 0)
(0.0002247965499 1.28188541e-06 0)
(0.0002253297375 1.042734334e-06 0)
(0.0002258719002 7.748722416e-07 0)
(0.0002264231282 4.80053739e-07 0)
(0.0002269834844 1.597513497e-07 0)
(0.0002275533538 -1.844549662e-07 0)
(0.0002281339765 -5.503233855e-07 0)
(0.0002287266418 -9.357114242e-07 0)
(0.000229332313 -1.338909376e-06 0)
(0.0002299522386 -1.758020019e-06 0)
(0.0002305878762 -2.190916468e-06 0)
(0.0002312407947 -2.635283779e-06 0)
(0.0002319126027 -3.088680353e-06 0)
(0.0002326048988 -3.548550744e-06 0)
(0.0002333192399 -4.012216493e-06 0)
(0.00023405711 -4.476854465e-06 0)
(0.000234819881 -4.939479573e-06 0)
(0.0002356087675 -5.39693872e-06 0)
(0.0002364247766 -5.845913868e-06 0)
(0.0002372686562 -6.282933103e-06 0)
(0.0002381408456 -6.704389757e-06 0)
(0.0002390414274 -7.106569422e-06 0)
(0.0002399700826 -7.485685422e-06 0)
(0.0002409260511 -7.837923661e-06 0)
(0.0002419080996 -8.159497037e-06 0)
(0.0002429144992 -8.446708729e-06 0)
(0.0002439430142 -8.696022964e-06 0)
(0.0002449909064 -8.904141077e-06 0)
(0.0002460549546 -9.068079945e-06 0)
(0.0002471314919 -9.185249201e-06 0)
(0.0002482164602 -9.25352315e-06 0)
(0.0002493054817 -9.271303141e-06 0)
(0.0002503939444 -9.237566212e-06 0)
(0.0002185680828 2.124661978e-07 0)
(0.0002186977325 4.318396933e-07 0)
(0.0002188527204 6.423854823e-07 0)
(0.0002190109619 8.388294979e-07 0)
(0.0002191993273 1.016718938e-06 0)
(0.0002194294431 1.172279676e-06 0)
(0.0002196980815 1.302314849e-06 0)
(0.0002199993978 1.404197818e-06 0)
(0.0002203293655 1.475870132e-06 0)
(0.0002206851725 1.515810156e-06 0)
(0.0002210642407 1.522981312e-06 0)
(0.000221464035 1.49677399e-06 0)
(0.0002218822118 1.436948188e-06 0)
(0.0002223167313 1.343581595e-06 0)
(0.0002227658853 1.217019686e-06 0)
(0.0002232282916 1.05783405e-06 0)
(0.0002237028842 8.667953048e-07 0)
(0.0002241889179 6.448756297e-07 0)
(0.0002246860148 3.932289566e-07 0)
(0.0002251938072 1.127775219e-07 0)
(0.0002257123596 -1.953000363e-07 0)
(0.0002262424588 -5.292604389e-07 0)
(0.0002267849425 -8.874851361e-07 0)
(0.0002273405491 -1.268628265e-06 0)
(0.0002279103323 -1.671161454e-06 0)
(0.0002284956051 -2.093336778e-06 0)
(0.0002290978629 -2.533220614e-06 0)
(0.0002297187245 -2.988741228e-06 0)
(0.0002303598911 -3.457695235e-06 0)
(0.0002310231191 -3.937732645e-06 0)
(0.0002317101909 -4.426329528e-06 0)
(0.0002324228785 -4.920763221e-06 0)
(0.000233162899 -5.418095184e-06 0)
(0.0002339318635 -5.915160975e-06 0)
(0.0002347312225 -6.408566451e-06 0)
(0.0002355622086 -6.894689624e-06 0)
(0.0002364257769 -7.369689288e-06 0)
(0.0002373225449 -7.829522568e-06 0)
(0.0002382527319 -8.269973153e-06 0)
(0.0002392161014 -8.686691476e-06 0)
(0.0002402119071 -9.075247724e-06 0)
(0.0002412388478 -9.431197885e-06 0)
(0.0002422950324 -9.750162173e-06 0)
(0.00024337796 -1.002791428e-05 0)
(0.0002444845176 -1.026047886e-05 0)
(0.0002456109986 -1.044423369e-05 0)
(0.0002467531444 -1.057601177e-05 0)
(0.0002479062086 -1.065319783e-05 0)
(0.0002490650452 -1.067381313e-05 0)
(0.0002502242162 -1.063658277e-05 0)
(0.0002185658493 1.615465584e-07 0)
(0.000218687834 3.282133182e-07 0)
(0.0002188289473 4.874938691e-07 0)
(0.0002189677385 6.348340081e-07 0)
(0.0002191318955 7.663210329e-07 0)
(0.0002193337249 8.785539738e-07 0)
(0.000219570622 9.685619365e-07 0)
(0.00021983737 1.033810305e-06 0)
(0.0002201305636 1.07221363e-06 0)
(0.0002204479752 1.082123222e-06 0)
(0.0002207875574 1.062296232e-06 0)
(0.0002211472453 1.011854812e-06 0)
(0.0002215251077 9.302426328e-07 0)
(0.0002219194609 8.171963429e-07 0)
(0.0002223288983 6.727107935e-07 0)
(0.000222752302 4.970253061e-07 0)
(0.0002231888865 2.905952598e-07 0)
(0.0002236378796 5.36949842e-08 0)
(0.000224099018 -2.129863309e-07 0)
(0.0002245726204 -5.082959219e-07 0)
(0.0002250590289 -8.312443592e-07 0)
(0.0002255586817 -1.180942451e-06 0)
(0.0002260723427 -1.556324725e-06 0)
(0.0002266010649 -1.956122018e-06 0)
(0.0002271461362 -2.378888763e-06 0)
(0.0002277090374 -2.823039407e-06 0)
(0.0002282914116 -3.286851399e-06 0)
(0.0002288950446 -3.768448647e-06 0)
(0.0002295218428 -4.265772525e-06 0)
(0.0002301738046 -4.776552868e-06 0)
(0.0002308529827 -5.298283209e-06 0)
(0.0002315614397 -5.828199746e-06 0)
(0.000232301198 -6.363263225e-06 0)
(0.0002330741846 -6.900143646e-06 0)
(0.0002338821708 -7.435209221e-06 0)
(0.0002347267058 -7.964521766e-06 0)
(0.0002356090464 -8.483840967e-06 0)
(0.0002365300825 -8.988639971e-06 0)
(0.0002374902603 -9.474134469e-06 0)
(0.0002384895074 -9.935327081e-06 0)
(0.0002395271602 -1.036706842e-05 0)
(0.0002406019005 -1.076413564e-05 0)
(0.0002417117037 -1.11213282e-05 0)
(0.0002428538046 -1.143357959e-05 0)
(0.0002440246848 -1.169608188e-05 0)
(0.0002452200873 -1.190441891e-05 0)
(0.0002464350609 -1.205470166e-05 0)
(0.0002476640361 -1.214369853e-05 0)
(0.0002489009342 -1.216895162e-05 0)
(0.0002501393034 -1.21288703e-05 0)
(0.0002185639287 1.17085399e-07 0)
(0.0002186793209 2.376809681e-07 0)
(0.000218808483 3.520076304e-07 0)
(0.0002189304632 4.560625537e-07 0)
(0.0002190735871 5.463577528e-07 0)
(0.0002192506761 6.19797701e-07 0)
(0.0002194595977 6.73608957e-07 0)