/*--------------------------------*- C++ -*----------------------------------*\
| =========                 |                                                 |
| \\      /  F ield         | foam-extend: Open Source CFD                    |
|  \\    /   O peration     | Version:     4.1                                |
|   \\  /    A nd           | Web:         http://www.foam-extend.org         |
|    \\/     M anipulation  |                                                 |
\*---------------------------------------------------------------------------*/
FoamFile
{
    version     2.0;
    format      ascii;
    class       volScalarField;
    location    "190000";
    object      p;
}
// * * * * * * * * * * * * * * * * * * * * * * * * * * * * * * * * * * * * * //

dimensions      [0 2 -2 0 0 0 0];

internalField   nonuniform List<scalar> 
15920
(
2.211116709e-08
1.928708033e-08
1.709840079e-08
1.59841314e-08
1.519154713e-08
1.437467721e-08
1.358108446e-08
1.288874406e-08
1.230109804e-08
1.179657724e-08
1.136425274e-08
1.100071356e-08
1.070092111e-08
1.04567886e-08
1.025929119e-08
1.009980222e-08
9.970383042e-09
9.863864897e-09
9.773984259e-09
9.695469064e-09
9.624019842e-09
9.556221481e-09
9.489429208e-09
9.421649949e-09
9.351425209e-09
9.277725217e-09
9.199856131e-09
9.117380336e-09
9.030050709e-09
8.937758552e-09
8.84049353e-09
8.738313511e-09
8.631322624e-09
8.519655854e-09
8.403468663e-09
8.282930441e-09
8.158220845e-09
8.029528247e-09
7.897049641e-09
7.760991415e-09
7.621570511e-09
7.479015675e-09
7.333568688e-09
7.185485562e-09
7.035037685e-09
6.882512843e-09
6.728215851e-09
6.572468545e-09
6.415609e-09
6.25799017e-09
1.680489396e-08
1.645565219e-08
1.58909797e-08
1.536741593e-08
1.486243417e-08
1.429492861e-08
1.369055247e-08
1.310483371e-08
1.256367405e-08
1.207333871e-08
1.163776133e-08
1.126049185e-08
1.094118212e-08
1.067518045e-08
1.045545815e-08
1.027440551e-08
1.012463978e-08
9.999313323e-09
9.892320403e-09
9.798432306e-09
9.713320931e-09
9.633497153e-09
9.556212547e-09
9.479356105e-09
9.401328648e-09
9.320951661e-09
9.237388589e-09
9.150069464e-09
9.058626768e-09
8.962844087e-09
8.86261607e-09
8.757917846e-09
8.648782366e-09
8.535284222e-09
8.417528537e-09
8.29564364e-09
8.16977645e-09
8.040089686e-09
7.90676032e-09
7.769978964e-09
7.629950002e-09
7.486892208e-09
7.341039657e-09
7.192642731e-09
7.041969004e-09
6.889303781e-09
6.734950178e-09
6.579228872e-09
6.422477107e-09
6.265046885e-09
1.627556014e-08
1.611383874e-08
1.567495509e-08
1.512009882e-08
1.458618123e-08
1.407615069e-08
1.35705378e-08
1.308092626e-08
1.262456979e-08
1.220793747e-08
1.183145871e-08
1.149519678e-08
1.119874171e-08
1.093995045e-08
1.071532198e-08
1.052078268e-08
1.03521109e-08
1.020508033e-08
1.007558721e-08
9.959800939e-09
9.854277183e-09
9.756009611e-09
9.662436297e-09
9.571421993e-09
9.481254362e-09
9.390582289e-09
9.298349046e-09
9.20374553e-09
9.106170543e-09
9.00519293e-09
8.9005174e-09
8.791955922e-09
8.679404661e-09
8.562825843e-09
8.442233878e-09
8.31768503e-09
8.189269953e-09
8.057108457e-09
7.921345914e-09
7.782150974e-09
7.639714258e-09
7.494247671e-09
7.345984145e-09
7.195177683e-09
7.042103439e-09
6.887057454e-09
6.730355075e-09
6.572330386e-09
6.413335202e-09
6.253737322e-09
1.527806133e-08
1.513640908e-08
1.485530224e-08
1.449968552e-08
1.412973563e-08
1.375706307e-08
1.337548139e-08
1.299203538e-08
1.262130456e-08
1.227262466e-08
1.194930668e-08
1.165273044e-08
1.138375611e-08
1.114215544e-08
1.092644836e-08
1.073431675e-08
1.056301389e-08
1.040959859e-08
1.027108384e-08
1.014457328e-08
1.00273738e-08
9.917064023e-09
9.81152371e-09
9.708938868e-09
9.60779207e-09
9.506831454e-09
9.405036592e-09
9.301590375e-09
9.195852348e-09
9.087331468e-09
8.975660498e-09
8.860574128e-09
8.741891094e-09
8.619499782e-09
8.49334691e-09
8.363428783e-09
8.22978463e-09
8.092491623e-09
7.951661004e-09
7.807435699e-09
7.659988865e-09
7.509522794e-09
7.356268035e-09
7.200482584e-09
7.042451036e-09
6.882483562e-09
6.72091546e-09
6.558104614e-09
6.394429026e-09
6.230284648e-09
1.463386493e-08
1.456414516e-08
1.43954298e-08
1.414906081e-08
1.386304777e-08
1.355887096e-08
1.324332021e-08
1.292304092e-08
1.260770874e-08
1.230526623e-08
1.201996325e-08
1.175388844e-08
1.150823734e-08
1.128335308e-08
1.107857896e-08
1.089247046e-08
1.072313154e-08
1.05684475e-08
1.042621775e-08
1.029425512e-08
1.017047057e-08
1.005293287e-08
9.939900887e-09
9.829835601e-09
9.721400021e-09
9.613450416e-09
9.50502188e-09
9.395311717e-09
9.283661924e-09
9.169541211e-09
9.052528038e-09
8.932295581e-09
8.80859905e-09
8.68126519e-09
8.550183604e-09
8.415299659e-09
8.276608702e-09
8.134151784e-09
7.988012344e-09
7.838314205e-09
7.685220038e-09
7.528929952e-09
7.369680342e-09
7.207742629e-09
7.043421651e-09
6.877054069e-09
6.709006679e-09
6.539673971e-09
6.369475297e-09
6.198851586e-09
1.413971816e-08
1.409078181e-08
1.396829592e-08
1.378232892e-08
1.355905864e-08
1.331650888e-08
1.306210486e-08
1.280076454e-08
1.25388718e-08
1.228266955e-08
1.203643427e-08
1.180264411e-08
1.158276902e-08
1.137755962e-08
1.118702994e-08
1.101054381e-08
1.084701512e-08
1.069508529e-08
1.055323854e-08
1.041988638e-08
1.029344104e-08
1.017237476e-08
1.00552599e-08
9.940792173e-09
9.827802357e-09
9.715259598e-09
9.602267918e-09
9.488058377e-09
9.371979349e-09
9.253486347e-09
9.132131651e-09
9.007554306e-09
8.879471098e-09
8.747668806e-09
8.611997825e-09
8.472368129e-09
8.328744179e-09
8.181137995e-09
8.02960968e-09
7.874267922e-09
7.715267678e-09
7.552808453e-09
7.387133371e-09
7.218527727e-09
7.047316926e-09
6.873864471e-09
6.698570079e-09
6.521867254e-09
6.344220075e-09
6.166118815e-09
1.374755753e-08
1.371090129e-08
1.362028666e-08
1.348101695e-08
1.330922376e-08
1.311712178e-08
1.29110154e-08
1.269547629e-08
1.247569818e-08
1.225682404e-08
1.204278831e-08
1.183617395e-08
1.163864322e-08
1.145121622e-08
1.127432084e-08
1.110783728e-08
1.09512166e-08
1.080361417e-08
1.066399287e-08
1.05311999e-08
1.040403096e-08
1.028128365e-08
1.016179746e-08
1.004448036e-08
9.928325144e-09
9.812418209e-09
9.695942464e-09
9.578176253e-09
9.458490067e-09
9.336341811e-09
9.211271388e-09
9.082895504e-09
8.950902425e-09
8.815045601e-09
8.675138268e-09
8.531055257e-09
8.382733865e-09
8.23015869e-09
8.073366248e-09
7.912448541e-09
7.747551032e-09
7.578870711e-09
7.406655161e-09
7.231201222e-09
7.052853453e-09
6.872002358e-09
6.689081997e-09
6.504566778e-09
6.318968148e-09
6.13283176e-09
1.343301214e-08
1.340519533e-08
1.333622063e-08
1.322874298e-08
1.309318873e-08
1.293810245e-08
1.276871244e-08
1.258913933e-08
1.240364071e-08
1.221630431e-08
1.203043585e-08
1.184841706e-08
1.167190323e-08
1.150200062e-08
1.133932735e-08
1.118405159e-08
1.103596766e-08
1.089459093e-08
1.075924004e-08
1.06291007e-08
1.050327823e-08
1.038084219e-08
1.026086211e-08
1.01424339e-08
1.002469819e-08
9.90685254e-09
9.788159129e-09
9.667948119e-09
9.545619069e-09
9.420641316e-09
9.292551734e-09
9.160952356e-09
9.025512344e-09
8.885962086e-09
8.742091345e-09
8.593745453e-09
8.440822112e-09
8.283284765e-09
8.121157302e-09
7.95452037e-09
7.783512947e-09
7.608333182e-09
7.429237487e-09
7.246539426e-09
7.060608279e-09
6.871866938e-09
6.680789173e-09
6.487896048e-09
6.293750093e-09
6.098946905e-09
1.317750444e-08
1.315567143e-08
1.310143468e-08
1.301627741e-08
1.290749646e-08
1.278119166e-08
1.264133293e-08
1.249122647e-08
1.233425324e-08
1.217365687e-08
1.201217181e-08
1.185190759e-08
1.169442723e-08
1.154084301e-08
1.139186481e-08
1.124783359e-08
1.110877253e-08
1.097445161e-08
1.084444891e-08
1.071820191e-08
1.059505073e-08
1.047427576e-08
1.035512922e-08
1.023686008e-08
1.011873303e-08
1.000004176e-08
9.880119298e-09
9.758345349e-09
9.634149182e-09
9.507013408e-09
9.376481387e-09
9.242147938e-09
9.103660297e-09
8.96072334e-09
8.813100793e-09
8.660613075e-09
8.503138988e-09
8.340621382e-09
8.173066158e-09
8.000541719e-09
7.82318124e-09
7.641184034e-09
7.454815693e-09
7.264407878e-09
7.070357347e-09
6.873123574e-09
6.673225131e-09
6.471235486e-09
6.267778004e-09
6.063519712e-09
1.296823183e-08
1.295070769e-08
1.290717915e-08
1.283853738e-08
1.275008995e-08
1.264621307e-08
1.252980099e-08
1.240341392e-08
1.226975e-08
1.21314265e-08
1.19907024e-08
1.18493935e-08
1.170890889e-08
1.157030059e-08
1.14342932e-08
1.130130851e-08
1.117150063e-08
1.104480024e-08
1.092095942e-08
1.079959174e-08
1.068020751e-08
1.056224487e-08
1.044509677e-08
1.032813266e-08
1.021071733e-08
1.009222546e-08
9.972048544e-09
9.849607435e-09
9.724360199e-09
9.59580332e-09
9.463470956e-09
9.326947684e-09
9.185866373e-09
9.039910976e-09
8.888819792e-09
8.732388087e-09
8.570471432e-09
8.402989041e-09
8.229927026e-09
8.051340908e-09
7.867358063e-09
7.678179951e-09
7.484083551e-09
7.285422006e-09
7.082624233e-09
6.876192785e-09
6.666699567e-09
6.454780167e-09
6.241127906e-09
6.026487187e-09
1.279604695e-08
1.278175399e-08
1.274624688e-08
1.269006469e-08
1.261718796e-08
1.253082884e-08
1.243310227e-08
1.232597103e-08
1.221157494e-08
1.20920164e-08
1.196913767e-08
1.184446163e-08
1.171921359e-08
1.159434486e-08
1.14705453e-08
1.134825776e-08
1.122770168e-08
1.110890354e-08
1.099172893e-08
1.08759128e-08
1.076108723e-08
1.064680616e-08
1.053256827e-08
1.041783556e-08
1.030204717e-08
1.018464129e-08
1.006506007e-08
9.942751785e-09
9.817186936e-09
9.687867212e-09
9.554326334e-09
9.416134698e-09
9.272903865e-09
9.124291652e-09
8.970007293e-09
8.809816509e-09
8.643546467e-09
8.471090558e-09
8.292413206e-09
8.107554207e-09
7.916632962e-09
7.71985251e-09
7.5175024e-09
7.309959962e-09
7.0976901e-09
6.881243546e-09
6.661252906e-09
6.438426153e-09
6.213538584e-09
5.987424368e-09
1.265409932e-08
1.264228442e-08
1.261292847e-08
1.256635788e-08
1.250564203e-08
1.243319436e-08
1.235056604e-08
1.22592434e-08
1.216090434e-08
1.205722616e-08
1.194970121e-08
1.183959088e-08
1.172793919e-08
1.161558195e-08
1.150314787e-08
1.139106463e-08
1.127957396e-08
1.11687523e-08
1.105853329e-08
1.094872978e-08
1.083905567e-08
1.072914512e-08
1.061856964e-08
1.050685875e-08
1.039351314e-08
1.027800449e-08
1.015979912e-08
1.0038371e-08
9.913202689e-09
9.783790929e-09
9.649654539e-09
9.51034128e-09
9.36543431e-09
9.21455887e-09
9.057389095e-09
8.893654801e-09
8.72314818e-09
8.54573037e-09
8.361338035e-09
8.169989936e-09
7.971793458e-09
7.766950734e-09
7.555763352e-09
7.338634722e-09
7.116070053e-09
6.888674553e-09
6.657149857e-09
6.422287687e-09
6.184960414e-09
5.94610966e-09
1.253713437e-08
1.252726314e-08
1.250273434e-08
1.246374203e-08
1.241270273e-08
1.235146279e-08
1.228116445e-08
1.220292746e-08
1.211806205e-08
1.202790339e-08
1.193365584e-08
1.18363544e-08
1.173687358e-08
1.16359295e-08
1.153407473e-08
1.143169853e-08
1.132903564e-08
1.122617963e-08
1.112309838e-08
1.10196492e-08
1.091559655e-08
1.081062494e-08
1.070436114e-08
1.05963714e-08
1.048618262e-08
1.037329876e-08
1.025720785e-08
1.013738893e-08
1.001331772e-08
9.884475099e-09
9.750356118e-09
9.610477417e-09
9.464384831e-09
9.311661784e-09
9.151937801e-09
8.984896904e-09
8.810286096e-09
8.62792419e-09
8.437711005e-09
8.239636687e-09
8.033790672e-09
7.820369842e-09
7.599685211e-09
7.372166208e-09
7.138361939e-09
6.898939705e-09
6.654681161e-09
6.406475472e-09
6.155308573e-09
5.902249305e-09
1.244103327e-08
1.243271846e-08
1.241205624e-08
1.237915573e-08
1.23359504e-08
1.228387508e-08
1.222377623e-08
1.215649689e-08
1.208305858e-08
1.200452131e-08
1.192185194e-08
1.183589174e-08
1.174736239e-08
1.165686463e-08
1.156486991e-08
1.14717166e-08
1.137761429e-08
1.128265289e-08
1.118681356e-08
1.108996666e-08
1.099191328e-08
1.089236564e-08
1.079096517e-08
1.068730582e-08
1.05809384e-08
1.047137872e-08
1.035811467e-08
1.02406149e-08
1.011833729e-08
9.990736657e-09
9.857272903e-09
9.717419741e-09
9.570673841e-09
9.416564498e-09
9.254663591e-09
9.08459578e-09
8.906049223e-09
8.718787078e-09
8.52265982e-09
8.317617778e-09
8.103722988e-09
7.881159751e-09
7.650243638e-09
7.411428403e-09
7.165309616e-09
6.912624314e-09
6.654246946e-09
6.391181548e-09
6.124549023e-09
5.855569922e-09
1.236249942e-08
1.235545538e-08
1.233795051e-08
1.231003897e-08
1.227328741e-08
1.222882579e-08
1.217728506e-08
1.211929977e-08
1.205566554e-08
1.198722188e-08
1.19147414e-08
1.183890241e-08
1.176029313e-08
1.167940849e-08
1.159664053e-08
1.151227209e-08
1.142647743e-08
1.133932363e-08
1.125079254e-08
1.116077012e-08
1.106904281e-08
1.097533743e-08
1.08793139e-08
1.078057494e-08
1.067867284e-08
1.057311728e-08
1.046338338e-08
1.034891917e-08
1.022915271e-08
1.010349957e-08
9.971371503e-09
9.832185987e-09
9.685376308e-09
9.530402285e-09
9.366761733e-09
9.194002811e-09
9.011737457e-09
8.819656041e-09
8.617543063e-09
8.40529325e-09
8.182927019e-09
7.95060452e-09
7.708638017e-09
7.457502267e-09
7.197841335e-09
6.930469915e-09
6.656369062e-09
6.376677487e-09
6.092677555e-09
5.805774263e-09
1.229884333e-08
1.229285652e-08
1.227797852e-08
1.225422785e-08
1.222288582e-08
1.21848518e-08
1.214059848e-08
1.20906037e-08
1.203548725e-08
1.197591289e-08
1.191249535e-08
1.184577736e-08
1.177623283e-08
1.170426223e-08
1.163018244e-08
1.155422077e-08
1.147651403e-08
1.139711058e-08
1.13159581e-08
1.123293433e-08
1.114783482e-08
1.106038264e-08
1.097023449e-08
1.08769862e-08
1.078017934e-08
1.067930749e-08
1.057382191e-08
1.046313746e-08
1.03466393e-08
1.02236905e-08
1.009364086e-08
9.955836632e-09
9.809631146e-09
9.654396525e-09
9.489536725e-09
9.31450236e-09
9.12880737e-09
8.932047263e-09
8.72391848e-09
8.504238519e-09
8.272966172e-09
8.030220749e-09
7.776299224e-09
7.511690782e-09
7.237087674e-09
6.95338983e-09
6.661701475e-09
6.363320886e-09
6.059724092e-09
5.752540061e-09
1.224782988e-08
1.224273887e-08
1.223008634e-08
1.220986811e-08
1.218313846e-08
1.215061909e-08
1.211266583e-08
1.206963914e-08
1.202202271e-08
1.19703405e-08
1.191507977e-08
1.185667133e-08
1.179549196e-08
1.173186068e-08
1.166602809e-08
1.159816862e-08
1.152837606e-08
1.145666457e-08
1.138296785e-08
1.130714608e-08
1.122898327e-08
1.114819056e-08
1.106441193e-08
1.097722849e-08
1.088616232e-08
1.079068025e-08
1.069019821e-08
1.058408628e-08
1.047167475e-08
1.035226116e-08
1.022511869e-08
1.00895057e-08
9.944676751e-09
9.789895135e-09
9.624447697e-09
9.447662274e-09
9.258927835e-09
9.057716723e-09
8.84360834e-09
8.616314181e-09
8.375704182e-09
8.121833102e-09
7.854964522e-09
7.575590778e-09
7.284448589e-09
6.982528903e-09
6.671077375e-09
6.35158359e-09
6.025759981e-09
5.695510005e-09
1.220756712e-08
1.22032487e-08
1.219251504e-08
1.217534803e-08
1.215261748e-08
1.212490592e-08
1.209248275e-08
1.205562161e-08
1.201470366e-08
1.197013747e-08
1.192230735e-08
1.187155479e-08
1.181817646e-08
1.176242058e-08
1.170447947e-08
1.164447901e-08
1.158247448e-08
1.151845018e-08
1.14523178e-08
1.138391548e-08
1.131300937e-08
1.123929471e-08
1.11623979e-08
1.10818783e-08
1.099723022e-08
1.090788519e-08
1.08132149e-08
1.071253492e-08
1.060510946e-08
1.049015757e-08
1.036686056e-08
1.023437104e-08
1.009182393e-08
9.938349852e-09
9.773091714e-09
9.595224603e-09
9.403979243e-09
9.198668706e-09
8.978717757e-09
8.743694391e-09
8.493343431e-09
8.227621435e-09
7.946730259e-09
7.65114607e-09
7.341642449e-09
7.019306808e-09
6.685546215e-09
6.342077778e-09
5.990902959e-09
5.634266814e-09
1.217642455e-08
1.217278398e-08
1.216373337e-08
1.214924662e-08
1.213004059e-08
1.21065864e-08
1.207908802e-08
1.204775391e-08
1.201290865e-08
1.197484368e-08
1.193386678e-08
1.189024624e-08
1.184421878e-08
1.179597465e-08
1.174565291e-08
1.169333749e-08
1.163905023e-08
1.158274686e-08
1.152431511e-08
1.146357301e-08
1.140026818e-08
1.133407692e-08
1.126460395e-08
1.119138233e-08
1.111387369e-08
1.103146867e-08
1.094348794e-08
1.084918423e-08
1.074774567e-08
1.063830043e-08
1.051992277e-08
1.039164098e-08
1.025244793e-08
1.010131509e-08
9.937210555e-09
9.75912121e-09
9.56607916e-09
9.357193165e-09
9.131684976e-09
8.888929536e-09
8.628497801e-09
8.350201681e-09
8.054139835e-09
7.740740667e-09
7.410798391e-09
7.065499426e-09
6.706434997e-09
6.335593636e-09
5.955331263e-09
5.568320679e-09
1.21529727e-08
1.214993651e-08
1.21423864e-08
1.213029292e-08
1.211424413e-08
1.209462076e-08
1.207156983e-08
1.204520936e-08
1.201597717e-08
1.198392841e-08
1.194934612e-08
1.191245388e-08
1.187342655e-08
1.183240851e-08
1.178950154e-08
1.174475494e-08
1.169816083e-08
1.164965053e-08
1.159909117e-08
1.154628248e-08
1.149095406e-08
1.143276291e-08
1.137129139e-08
1.130604515e-08
1.123645118e-08
1.116185604e-08
1.108152493e-08
1.099464175e-08
1.09003104e-08
1.07975572e-08
1.06853349e-08
1.05625289e-08
1.042796671e-08
1.028043175e-08
1.011868217e-08
9.941474761e-09
9.747594601e-09
9.53589125e-09
9.305322423e-09
9.055004395e-09
8.784267174e-09
8.492713332e-09
8.180280057e-09
7.847301061e-09
7.494561445e-09
7.123339527e-09
6.735430935e-09
6.333147767e-09
5.919286776e-09
5.497066223e-09
1.213593809e-08
1.213344811e-08
1.212725469e-08
1.211733011e-08
1.210414989e-08
1.208802687e-08
1.206910602e-08
1.204753705e-08
1.202331079e-08
1.19968464e-08
1.196828689e-08
1.193778391e-08
1.190547542e-08
1.187146933e-08
1.183583375e-08
1.179858993e-08
1.175970735e-08
1.171909883e-08
1.167661555e-08
1.163204253e-08
1.158509461e-08
1.153541238e-08
1.148255823e-08
1.142601201e-08
1.136516682e-08
1.129932502e-08
1.122769506e-08
1.114938907e-08
1.10634213e-08
1.096870748e-08
1.086406591e-08
1.074822133e-08
1.061981248e-08
1.047740428e-08
1.031950588e-08
1.014459565e-08
9.951153895e-09
9.737704042e-09
9.502863532e-09
9.245405109e-09
8.964327556e-09
8.658933957e-09
8.328916103e-09
7.974441702e-09
7.596235855e-09
7.195646991e-09
6.774690496e-09
6.336061777e-09
5.883107527e-09
5.419748757e-09
1.212417074e-08
1.212217941e-08
1.211722011e-08
1.210928221e-08
1.209873097e-08
1.208583272e-08
1.207068442e-08
1.205339814e-08
1.203408109e-08
1.20129326e-08
1.199011048e-08
1.196574575e-08
1.193994647e-08
1.191279288e-08
1.188433026e-08
1.185456181e-08
1.182344236e-08
1.179087281e-08
1.175669444e-08
1.17206835e-08
1.168254575e-08
1.164191084e-08
1.159832619e-08
1.155125052e-08
1.150004719e-08
1.144397797e-08
1.138219714e-08
1.131374592e-08
1.123754708e-08
1.115240033e-08
1.105697962e-08
1.094983352e-08
1.082938941e-08
1.069396261e-08
1.054177179e-08
1.037096309e-08
1.017964468e-08
9.96593245e-09
9.728008174e-09
9.464192499e-09
9.173034141e-09
8.85341325e-09
8.504655439e-09
8.126652711e-09
7.719983186e-09
7.286016525e-09
6.826992495e-09
6.346059488e-09
5.84725476e-09
5.335412084e-09
1.211662411e-08
1.211508675e-08
1.211122121e-08
1.210515966e-08
1.209706713e-08
1.20871764e-08
1.20755793e-08
1.206235574e-08
1.204762634e-08
1.20315375e-08
1.201422214e-08
1.199579032e-08
1.19763308e-08
1.195590761e-08
1.193455301e-08
1.191226044e-08
1.18889781e-08
1.186460284e-08
1.183897394e-08
1.181186674e-08
1.178298592e-08
1.175195815e-08
1.171832385e-08
1.168152855e-08
1.164091396e-08
1.159570918e-08
1.15450214e-08
1.148782625e-08
1.142295786e-08
1.134909947e-08
1.126477577e-08
1.116834792e-08
1.105801238e-08
1.093180487e-08
1.078761115e-08
1.062318749e-08
1.043619386e-08
1.022424207e-08
9.98496083e-09
9.716081101e-09
9.415545615e-09
9.081642201e-09
8.713156414e-09
8.309538691e-09
7.871079085e-09
7.399074357e-09
6.895966165e-09
6.365426684e-09
5.812362229e-09
5.242807826e-09
1.211234055e-08
1.21112458e-08
1.210856764e-08
1.21041225e-08
1.209830077e-08
1.209122481e-08
1.208296244e-08
1.207359323e-08
1.206322617e-08
1.205198218e-08
1.20399749e-08
1.202730179e-08
1.201404172e-08
1.200025122e-08
1.198595823e-08
1.197115519e-08
1.19557925e-08
1.193977194e-08
1.192294007e-08
1.190508103e-08
1.188590851e-08
1.186505656e-08
1.184206954e-08
1.181639144e-08
1.178735477e-08
1.17541686e-08
1.171590521e-08
1.167148563e-08
1.161966442e-08
1.15590148e-08
1.148791441e-08
1.140453285e-08
1.13068223e-08
1.119251346e-08
1.105911873e-08
1.090394527e-08
1.072412214e-08
1.051664648e-08
1.027845304e-08
1.000651124e-08
9.697954998e-09
9.350249167e-09
8.961390554e-09
8.530138947e-09
8.056271181e-09
7.540841058e-09
6.986414202e-09
6.397239336e-09
5.779309125e-09
5.140259302e-09
1.211036994e-08
1.210971788e-08
1.210799005e-08
1.21052061e-08
1.210154345e-08
1.20971252e-08
1.209202944e-08
1.208633412e-08
1.208013804e-08
1.207355062e-08
1.206667643e-08
1.205960773e-08
1.205242141e-08
1.204517509e-08
1.203790119e-08
1.203060015e-08
1.202323375e-08
1.201571864e-08
1.200791924e-08
1.199963976e-08
1.199061477e-08
1.198049854e-08
1.196885348e-08
1.195513769e-08
1.193869135e-08
1.191872118e-08
1.18942826e-08
1.186426005e-08
1.1827346e-08
1.178201913e-08
1.172652199e-08
1.165883871e-08
1.157667438e-08
1.147743885e-08
1.135823767e-08
1.121587264e-08
1.104685686e-08
1.084745186e-08
1.061373487e-08
1.034170268e-08
1.002741923e-08
9.667216056e-09
9.257951237e-09
8.797325659e-09
8.284249424e-09
7.71923896e-09
7.10480411e-09
6.445767711e-09
5.749445836e-09
5.025599872e-09
1.210999999e-08
1.210966583e-08
1.210887101e-08
1.210761002e-08
1.210598105e-08
1.210408463e-08
1.21020004e-08
1.209981028e-08
1.209761078e-08
1.209550666e-08
1.209360059e-08
1.20919871e-08
1.209074906e-08
1.208995337e-08
1.208964534e-08
1.208984227e-08
1.209052709e-08
1.209164191e-08
1.209308055e-08
1.209467966e-08
1.209620826e-08
1.209735613e-08
1.209772108e-08
1.209679484e-08
1.209394658e-08
1.208840368e-08
1.207922949e-08
1.206529844e-08
1.204526847e-08
1.201755088e-08
1.198027792e-08
1.193126854e-08
1.186799353e-08
1.178754232e-08
1.168659483e-08
1.15614023e-08
1.14077823e-08
1.122113654e-08
1.099650361e-08
1.072865758e-08
1.041226444e-08
1.004211242e-08
9.613433537e-09
9.12232548e-09
8.566272494e-09
7.944748181e-09
7.259851523e-09
6.516888058e-09
5.724773169e-09
4.89609886e-09
1.211023883e-08
1.211027445e-08
1.211037001e-08
1.211054094e-08
1.211083538e-08
1.211132918e-08
1.211210766e-08
1.211326145e-08
1.211488927e-08
1.211709682e-08
1.211999143e-08
1.212367684e-08
1.212824899e-08
1.213379153e-08
1.214037072e-08
1.214802963e-08
1.215678229e-08
1.216660721e-08
1.217743951e-08
1.218916149e-08
1.220159174e-08
1.221447308e-08
1.222745902e-08
1.224009782e-08
1.225181334e-08
1.226188239e-08
1.226940855e-08
1.227329218e-08
1.227219581e-08
1.226450452e-08
1.224828162e-08
1.222122026e-08
1.218059129e-08
1.212318804e-08
1.204527146e-08
1.194252114e-08
1.180999861e-08
1.164213152e-08
1.143273258e-08
1.117507185e-08
1.086202261e-08
1.048630656e-08
1.004087003e-08
9.5194191e-09
8.917131025e-09
8.231545227e-09
7.463600182e-09
6.618711953e-09
5.707686226e-09
4.74710215e-09
1.211041344e-08
1.211079679e-08
1.211172963e-08
1.211324829e-08
1.211535646e-08
1.211811004e-08
1.212160296e-08
1.212593739e-08
1.213121829e-08
1.213755732e-08
1.21450721e-08
1.215388145e-08
1.216410063e-08
1.217583689e-08
1.218918503e-08
1.220422256e-08
1.222100427e-08
1.223955575e-08
1.225986538e-08
1.228187492e-08
1.230546885e-08
1.233046231e-08
1.235658684e-08
1.238347294e-08
1.241062891e-08
1.243741566e-08
1.246301708e-08
1.248640506e-08
1.250629795e-08
1.252111143e-08
1.252890148e-08
1.252729955e-08
1.251343957e-08
1.248387623e-08
1.243449633e-08
1.236042833e-08
1.225595775e-08
1.211445667e-08
1.192834219e-08
1.168908853e-08
1.138732598e-08
1.101306668e-08
1.055610871e-08
1.000667612e-08
9.356343809e-09
8.599284106e-09
7.733836491e-09
6.764355452e-09
5.703153816e-09
4.572027023e-09
1.210986587e-08
1.211052542e-08
1.211223611e-08
1.211501674e-08
1.211882698e-08
1.212370649e-08
1.212975953e-08
1.213710216e-08
1.21458491e-08
1.215612221e-08
1.216805397e-08
1.218178324e-08
1.219744994e-08
1.221519096e-08
1.223513664e-08
1.225740689e-08
1.228210613e-08
1.230931702e-08
1.233909282e-08
1.237144876e-08
1.240635209e-08
1.244371026e-08
1.248335623e-08
1.252503042e-08
1.256835868e-08
1.261282574e-08
1.265774285e-08
1.270220836e-08
1.274505998e-08
1.278481734e-08
1.281961289e-08
1.284710949e-08
1.286440369e-08
1.286791353e-08
1.285324997e-08
1.281507384e-08
1.274694399e-08
1.264116493e-08
1.248864803e-08
1.227881393e-08
1.19995791e-08
1.163748677e-08
1.117806569e-08
1.060653272e-08
9.908962038e-09
9.074036199e-09
8.095384793e-09
6.974441198e-09
5.72359873e-09
4.369535775e-09
1.210777323e-08
1.210875563e-08
1.211120841e-08
1.211517268e-08
1.212056675e-08
1.21274292e-08
1.213587715e-08
1.214604076e-08
1.215804733e-08
1.21720325e-08
1.21881472e-08
1.220655423e-08
1.222742254e-08
1.225092381e-08
1.227722995e-08
1.230651004e-08
1.233892581e-08
1.237462588e-08
1.241373935e-08
1.245636828e-08
1.250257894e-08
1.255239052e-08
1.260576087e-08
1.26625689e-08
1.272259306e-08
1.278548466e-08
1.285073431e-08
1.291762953e-08
1.298520266e-08
1.305216685e-08
1.311683689e-08
1.317703076e-08
1.322994922e-08
1.327203098e-08
1.329877988e-08
1.330455978e-08
1.328235739e-08
1.322351856e-08
1.311746844e-08
1.295143772e-08
1.271023949e-08
1.237616696e-08
1.192912252e-08
1.134717211e-08
1.060778311e-08
9.690201473e-09
8.579183476e-09
7.270412304e-09
5.77616628e-09
4.130257531e-09
1.210363017e-08
1.210488725e-08
1.210801862e-08
1.211307456e-08
1.211993437e-08
1.212862611e-08
1.213928829e-08
1.215206659e-08
1.216710196e-08
1.218454654e-08
1.220457249e-08
1.222736937e-08
1.225313856e-08
1.228209052e-08
1.231444337e-08
1.235042054e-08
1.239024711e-08
1.243414527e-08
1.248232939e-08
1.253500015e-08
1.259233709e-08
1.265448869e-08
1.272155975e-08
1.279359557e-08
1.287056208e-08
1.29523204e-08
1.303859412e-08
1.312892721e-08
1.322263047e-08
1.331871371e-08
1.341579966e-08
1.35120141e-08
1.360484635e-08
1.369097433e-08
1.376604665e-08
1.382441129e-08
1.385878141e-08
1.385983459e-08
1.381574638e-08
1.371166667e-08
1.352917164e-08
1.324575884e-08
1.283449614e-08
1.226402016e-08
1.149914587e-08
1.050298738e-08
9.240939089e-09
7.691167887e-09
5.857059971e-09
3.790326724e-09
1.209686054e-08
1.209835685e-08
1.210208669e-08
1.210812995e-08
1.211632932e-08
1.212669204e-08
1.213936759e-08
1.215452993e-08
1.217233499e-08
1.219295123e-08
1.221657389e-08
1.224342125e-08
1.227372932e-08
1.230774992e-08
1.23457502e-08
1.238801128e-08
1.243482577e-08
1.248649496e-08
1.254332568e-08
1.260562619e-08
1.267370046e-08
1.274784063e-08
1.282831729e-08
1.29153668e-08
1.300917435e-08
1.310985136e-08
1.321740617e-08
1.333170586e-08
1.345242565e-08
1.357898176e-08
1.371044379e-08
1.384542071e-08
1.39819115e-08
1.41171091e-08
1.424714506e-08
1.436675827e-08
1.446886538e-08
1.45440099e-08
1.457966869e-08
1.455939655e-08
1.446181504e-08
1.425948917e-08
1.391785577e-08
1.339436507e-08
1.263825732e-08
1.159127755e-08
1.018856085e-08
8.36951243e-09
6.080287425e-09
3.368295637e-09
1.208694458e-08
1.208865908e-08
1.209292553e-08
1.209983476e-08
1.210921584e-08
1.212106166e-08
1.213553411e-08
1.215282792e-08
1.217311192e-08
1.219657402e-08
1.222343289e-08
1.225393636e-08
1.228835597e-08
1.232698572e-08
1.237014267e-08
1.241816683e-08
1.247142034e-08
1.253028644e-08
1.259516824e-08
1.266648666e-08
1.274467724e-08
1.283018571e-08
1.292346211e-08
1.302495235e-08
1.313508581e-08
1.325425797e-08
1.338280715e-08
1.352098338e-08
1.366890543e-08
1.38265013e-08
1.399342718e-08
1.416895926e-08
1.435184734e-08
1.454011463e-08
1.47307854e-08
1.491951702e-08
1.510010034e-08
1.526377757e-08
1.539831696e-08
1.548676448e-08
1.550579518e-08
1.542357022e-08
1.519727376e-08
1.477028308e-08
1.407115874e-08
1.301239491e-08
1.149768344e-08
9.425179009e-09
6.661402698e-09
3.18142123e-09
1.207342658e-08
1.207533159e-08
1.208006757e-08
1.208772879e-08
1.209812211e-08
1.211124498e-08
1.212725199e-08
1.214641371e-08
1.216885466e-08
1.219479608e-08
1.222448341e-08
1.22581926e-08
1.229622965e-08
1.233892971e-08
1.238665856e-08
1.243981411e-08
1.249882731e-08
1.256416289e-08
1.263632004e-08
1.271583282e-08
1.280327022e-08
1.289923562e-08
1.300436513e-08
1.311932391e-08
1.324480014e-08
1.338149551e-08
1.353011069e-08
1.3691324e-08
1.386576037e-08
1.405394683e-08
1.425624834e-08
1.447277716e-08
1.470326524e-08
1.494688361e-08
1.520198618e-08
1.546574856e-08
1.573365578e-08
1.599876616e-08
1.625064711e-08
1.647382307e-08
1.664550694e-08
1.673219247e-08
1.668482436e-08
1.643112729e-08
1.586830211e-08
1.484706583e-08
1.319409358e-08
1.067600519e-08
7.164267752e-09
2.597543087e-09
1.205591116e-08
1.205797397e-08
1.20630987e-08
1.207138551e-08
1.20826255e-08
1.209682162e-08
1.211417081e-08
1.213482343e-08
1.215905151e-08
1.218706587e-08
1.221912699e-08
1.225553668e-08
1.229663196e-08
1.234278571e-08
1.239440924e-08
1.245195497e-08
1.25159189e-08
1.258684304e-08
1.26653181e-08
1.275198671e-08
1.284754713e-08
1.29527569e-08
1.306843564e-08
1.319546689e-08
1.333479935e-08
1.348744687e-08
1.365448515e-08
1.383704296e-08
1.403628704e-08
1.425339827e-08
1.448953346e-08
1.474576439e-08
1.502298573e-08
1.532177931e-08
1.56422127e-08
1.598353959e-08
1.6343756e-08
1.671893769e-08
1.710224038e-08
1.748236776e-08
1.784118727e-08
1.814984111e-08
1.836244835e-08
1.840426114e-08
1.81538466e-08
1.739525795e-08
1.579572363e-08
1.265105089e-08
7.428110701e-09
-1.208338185e-09
1.203406829e-08
1.203625336e-08
1.204168012e-08
1.205045455e-08
1.206235482e-08
1.207737795e-08
1.209571827e-08
1.211759863e-08
1.214324839e-08
1.217290372e-08
1.220684676e-08
1.224540171e-08
1.228893504e-08
1.233785313e-08
1.239260748e-08
1.2453699e-08
1.25216817e-08
1.259716678e-08
1.268082752e-08
1.277340542e-08
1.287571723e-08
1.298866243e-08
1.311323102e-08
1.325051164e-08
1.340170036e-08
1.356811008e-08
1.375117937e-08
1.395247907e-08
1.417371619e-08
1.441673408e-08
1.468350514e-08
1.497610906e-08
1.529669004e-08
1.564738541e-08
1.603020886e-08
1.644685967e-08
1.689841954e-08
1.738488174e-08
1.790441688e-08
1.84522202e-08
1.901868386e-08
1.958639842e-08
2.012518624e-08
2.058278928e-08
2.086857168e-08
2.080882657e-08
2.008272538e-08
1.781865741e-08
1.268118473e-08
-2.711080021e-09
1.200764085e-08
1.200991176e-08
1.201555125e-08
1.202466972e-08
1.203703579e-08
1.205264542e-08
1.207170092e-08
1.209444251e-08
1.212110199e-08
1.215193087e-08
1.218722283e-08
1.222732375e-08
1.227262126e-08
1.232354959e-08
1.238059386e-08
1.24442948e-08
1.251525414e-08
1.259414042e-08
1.268169609e-08
1.277874663e-08
1.288620982e-08
1.300510645e-08
1.313657294e-08
1.328187612e-08
1.344242964e-08
1.361981167e-08
1.381578502e-08
1.403231983e-08
1.427161781e-08
1.453613673e-08
1.482861465e-08
1.515209114e-08
1.550992087e-08