/*--------------------------------*- C++ -*----------------------------------*\
| =========                 |                                                 |
| \\      /  F ield         | foam-extend: Open Source CFD                    |
|  \\    /   O peration     | Version:     4.1                                |
|   \\  /    A nd           | Web:         http://www.foam-extend.org         |
|    \\/     M anipulation  |                                                 |
\*---------------------------------------------------------------------------*/
FoamFile
{
    version     2.0;
    format      ascii;
    class       surfaceScalarField;
    location    "190000";
    object      phi;
}
// * * * * * * * * * * * * * * * * * * * * * * * * * * * * * * * * * * * * * //

dimensions      [0 3 -1 0 0 0 0];

internalField   nonuniform List<scalar> 
31542
(
1.062502909e-07
3.079709045e-09
1.006080403e-07
5.642251054e-09
9.408881395e-08
6.519226001e-09
8.728525775e-08
6.803555276e-09
8.047918874e-08
6.806067905e-09
7.393042531e-08
6.548762487e-09
6.781337595e-08
6.117048756e-09
6.222350862e-08
5.589867047e-09
5.720651493e-08
5.016993546e-09
5.277292377e-08
4.433590968e-09
4.890841528e-08
3.864508125e-09
4.558031635e-08
3.328098364e-09
4.27438469e-08
2.836468753e-09
4.034800646e-08
2.395839678e-09
3.833995071e-08
2.008054943e-09
3.666794628e-08
1.672003515e-09
3.528330719e-08
1.384638022e-09
3.414157078e-08
1.141735151e-09
3.320308341e-08
9.384859927e-10
3.243315839e-08
7.699236494e-10
3.180194833e-08
6.312088655e-10
3.128413667e-08
5.178107363e-10
3.085852328e-08
4.256126983e-10
3.050756193e-08
3.509607768e-10
3.021685712e-08
2.907041503e-10
2.997468754e-08
2.421686908e-10
2.977157397e-08
2.031124145e-10
2.959988794e-08
1.716847186e-10
2.945350414e-08
1.46382486e-10
2.932749941e-08
1.260036174e-10
2.921789691e-08
1.096016871e-10
2.912145247e-08
9.644394014e-11
2.903547873e-08
8.597347279e-11
2.895770264e-08
7.777594153e-11
2.888615165e-08
7.155087294e-11
2.881906418e-08
6.708732429e-11
2.875482064e-08
6.42433091e-11
2.8691892e-08
6.292831471e-11
2.862880306e-08
6.308848444e-11
2.85641082e-08
6.469428817e-11
2.849637695e-08
6.773057339e-11
2.842418751e-08
7.218876729e-11
2.834612613e-08
7.806080349e-11
2.826079143e-08
8.533431978e-11
2.816680241e-08
9.39888276e-11
2.806280962e-08
1.039926643e-10
2.794750848e-08
1.153009311e-10
2.781965415e-08
1.278539456e-10
2.767807746e-08
1.41576139e-10
1.563756678e-10
2.752170112e-08
1.113828681e-07
1.026839162e-09
1.139923849e-07
3.032733093e-09
1.160764551e-07
4.435155857e-09
1.17444644e-07
5.435367054e-09
1.180553326e-07
6.195380022e-09
1.17903629e-07
6.70046648e-09
1.170830679e-07
6.937609993e-09
1.15722151e-07
6.950783748e-09
1.139478493e-07
6.791294804e-09
1.11878856e-07
6.502583665e-09
1.096208823e-07
6.122481386e-09
1.072634003e-07
5.685580219e-09
1.048786254e-07
5.221244062e-09
1.025226663e-07
4.751799707e-09
1.002370999e-07
4.293622882e-09
9.805106866e-08
3.858036608e-09
9.598345982e-08
3.452248728e-09
9.404500661e-08
3.08018981e-09
9.224020748e-08
2.74328587e-09
9.056897346e-08
2.441157645e-09
8.902797231e-08
2.172209455e-09
8.761168471e-08
1.934097689e-09
8.631321243e-08
1.724084766e-09
8.51249535e-08
1.539220302e-09
8.403898342e-08
1.376675725e-09
8.304734856e-08
1.233805766e-09
8.214227458e-08
1.108188938e-09
8.131629474e-08
9.976669783e-10
8.056232535e-08
9.003538239e-10
7.987370119e-08
8.14629163e-10
7.924418119e-08
7.391225987e-10
7.866793404e-08
6.726917968e-10
7.813951086e-08
6.143974547e-10
7.765381054e-08
5.634773611e-10
7.720604184e-08
5.193210488e-10
7.679168504e-08
4.814458782e-10
7.640645528e-08
4.494748799e-10
7.604626877e-08
4.231164916e-10
7.570721229e-08
4.021463636e-10
7.538551658e-08
3.863911333e-10
7.507753409e-08
3.75714028e-10
7.477972153e-08
3.700022635e-10
7.448862727e-08
3.691560565e-10
7.420088364e-08
3.73078988e-10
7.391320391e-08
3.816695163e-10
7.362238363e-08
3.948136674e-10
7.332530505e-08
4.123798698e-10
7.301894578e-08
4.342131942e-10
7.270039084e-08
4.601308607e-10
4.899191136e-10
7.236684732e-08
1.096476282e-07
7.092105702e-10
1.107350464e-07
1.945313774e-09
1.12197509e-07
2.972692203e-09
1.138553491e-07
3.777526373e-09
1.156187718e-07
4.43195707e-09
1.173591399e-07
4.960098435e-09
1.189503328e-07
5.346417125e-09
1.203110969e-07
5.590019509e-09
1.213964745e-07
5.70591676e-09
1.221880284e-07
5.711029059e-09
1.226887529e-07
5.621755895e-09
1.229184527e-07
5.45587932e-09
1.229077179e-07
5.231977836e-09
1.226919995e-07
4.967516938e-09
1.2230782e-07
4.677801222e-09
1.217902387e-07
4.375616693e-09
1.211713316e-07
4.071154584e-09
1.204793708e-07
3.772149463e-09
1.197385338e-07
3.484121868e-09
1.189689716e-07
3.210719055e-09
1.181870926e-07
2.954087734e-09
1.174059634e-07
2.715226201e-09
1.166357561e-07
2.494291193e-09
1.158841209e-07
2.290854329e-09
1.151566577e-07
2.104137669e-09
1.14457297e-07
1.93316516e-09
1.137886152e-07
1.776869551e-09
1.131521052e-07
1.634176021e-09
1.125483979e-07
1.504060372e-09
1.119774413e-07
1.385585172e-09
1.114386439e-07
1.277919507e-09
1.109309882e-07
1.180347e-09
1.104531196e-07
1.092265603e-09
1.100034146e-07
1.013181864e-09
1.095800335e-07
9.4270167e-10
1.091809601e-07
8.805189444e-10
1.088040313e-07
8.264031606e-10
1.084469609e-07
7.801863639e-10
1.081073561e-07
7.417506194e-10
1.077827312e-07
7.110154515e-10
1.074705192e-07
6.879255852e-10
1.071680818e-07
6.724394933e-10
1.06872719e-07
6.645188637e-10
1.065816791e-07
6.641188745e-10
1.062921698e-07
6.711788048e-10
1.060013716e-07
6.856117376e-10
1.057064489e-07
7.073023505e-10
1.054045644e-07
7.360974194e-10
1.050928948e-07
7.717999363e-10
8.141645863e-10
1.047686488e-07
1.095658703e-07
4.733407682e-10
1.100926403e-07
1.418544556e-09
1.108124934e-07
2.252839528e-09
1.116527927e-07
2.937227332e-09
1.126012225e-07
3.48352743e-09
1.136481302e-07
3.913190786e-09
1.147610296e-07
4.233517633e-09
1.159007931e-07
4.450255876e-09
1.170312483e-07
4.575461274e-09
1.18119524e-07
4.622753016e-09
1.191372995e-07
4.603980274e-09
1.200632261e-07
4.529952756e-09
1.20883891e-07
4.411313244e-09
1.215931202e-07
4.258288268e-09
1.221907954e-07
4.080126492e-09
1.226815146e-07
3.884897644e-09
1.23073204e-07
3.679465066e-09
1.233758528e-07
3.469500173e-09
1.236004524e-07
3.259521729e-09
1.237581854e-07
3.052985672e-09
1.238598548e-07
2.852418269e-09
1.239155137e-07
2.659567532e-09
1.239342507e-07
2.475554847e-09
1.239240894e-07
2.301016333e-09
1.238919961e-07
2.13623166e-09
1.238439269e-07
1.981234789e-09
1.237848966e-07
1.835899984e-09
1.237190634e-07
1.700009068e-09
1.236498196e-07
1.573303861e-09
1.235798796e-07
1.455524776e-09
1.235113617e-07
1.34643708e-09
1.234458611e-07
1.245847454e-09
1.233845138e-07
1.153613079e-09
1.233280509e-07
1.069645093e-09
1.232768452e-07
9.939077634e-10
1.232309498e-07
9.264146699e-10
1.231901311e-07
8.672221867e-10
1.231538966e-07
8.164211711e-10
1.231215177e-07
7.741296862e-10
1.230920503e-07
7.404832439e-10
1.230643516e-07
7.156246637e-10
1.230370975e-07
6.996940937e-10
1.230087973e-07
6.928195613e-10
1.22977809e-07
6.951075801e-10
1.229423542e-07
7.066339366e-10
1.229005312e-07
7.274350882e-10
1.228503329e-07
7.575009599e-10
1.227896638e-07
7.967669449e-10
1.227163571e-07
8.451069752e-10
9.023278478e-10
1.226281939e-07
1.09441142e-07
3.621986606e-10
1.097662614e-07
1.093425835e-09
1.102557823e-07
1.76331938e-09
1.108565104e-07
2.336499752e-09
1.115314502e-07
2.808588005e-09
1.122575702e-07
3.187070771e-09
1.13014041e-07
3.47704657e-09
1.137822423e-07
3.682053974e-09
1.145486136e-07
3.809089297e-09
1.153032445e-07
3.868121353e-09
1.160377869e-07
3.869437077e-09
1.167450605e-07
3.822678503e-09
1.174194035e-07
3.736969672e-09
1.180568488e-07
3.620842536e-09
1.186550447e-07
3.481930285e-09
1.192131319e-07
3.326810278e-09
1.197315767e-07
3.161020017e-09
1.20211949e-07
2.989127792e-09
1.206566608e-07
2.814809662e-09
1.210687067e-07
2.640939321e-09
1.21451429e-07
2.469695467e-09
1.218083192e-07
2.302676706e-09
1.221428606e-07
2.141012901e-09
1.224584094e-07
1.985467049e-09
1.227581139e-07
1.836526906e-09
1.230448633e-07
1.694485122e-09
1.233212589e-07
1.559504179e-09
1.235896009e-07
1.431666747e-09
1.238518891e-07
1.311015081e-09
1.24109831e-07
1.197582263e-09
1.243648534e-07
1.091414016e-09
1.246181169e-07
9.925833961e-10
1.248705301e-07
9.011993828e-10
1.251227641e-07
8.174107459e-10
1.253752655e-07
7.414061862e-10
1.256282672e-07
6.734126797e-10
1.258818001e-07
6.136891601e-10
1.261357018e-07
5.625194971e-10
1.26389624e-07
5.202076194e-10
1.266430402e-07
4.870673104e-10
1.268952525e-07
4.634125982e-10
1.271453986e-07
4.495482954e-10
1.273924582e-07
4.457601235e-10
1.27635261e-07
4.523047983e-10
1.278724948e-07
4.694003419e-10
1.281027135e-07
4.972165635e-10
1.283243488e-07
5.358659495e-10
1.285357207e-07
5.853952205e-10
1.287350504e-07
6.457773796e-10
7.169043681e-10
1.289204737e-07
1.094057848e-07
2.864141773e-10
1.096382618e-07
8.609492925e-10
1.100024805e-07
1.39910109e-09
1.104631186e-07
1.875862002e-09
1.10990477e-07
2.281229764e-09
1.115627109e-07
2.614836728e-09
1.12161494e-07
2.878263247e-09
1.127703043e-07
3.073243239e-09
1.133758834e-07
3.203509847e-09
1.139687932e-07
3.275211332e-09
1.145426231e-07
3.295606968e-09
1.15093252e-07
3.272049496e-09
1.156184903e-07
3.211731281e-09
1.161177521e-07
3.121580459e-09
1.165916445e-07
3.008037449e-09
1.170416011e-07
2.876853336e-09
1.174696118e-07
2.733009129e-09
1.178780205e-07
2.580719073e-09
1.182693616e-07
2.423468641e-09
1.186462289e-07
2.264072267e-09
1.190111748e-07
2.10474963e-09
1.193666382e-07
1.947213209e-09
1.197148935e-07
1.792757432e-09
1.200580172e-07
1.642342907e-09
1.203978707e-07
1.496673046e-09
1.207360939e-07
1.356261519e-09
1.210741088e-07
1.221488995e-09
1.21413126e-07
1.092649285e-09
1.217541543e-07
9.699865827e-10
1.220980115e-07
8.537248253e-10
1.224453363e-07
7.44089128e-10
1.227965985e-07
6.413211451e-10
1.23152109e-07
5.456887178e-10
1.235120284e-07
4.574912151e-10
1.238763718e-07
3.770626157e-10
1.242450113e-07
3.047730926e-10
1.246176935e-07
2.410070215e-10
1.249940298e-07
1.86183528e-10
1.253735004e-07
1.407373232e-10
1.257554587e-07
1.051094688e-10
1.261391319e-07
7.973963838e-11
1.265236239e-07
6.505632892e-11
1.26907918e-07
6.146603139e-11
1.272908803e-07
6.934242016e-11
1.276712646e-07
8.901615108e-11
1.280477168e-07
1.20764615e-10
1.284187816e-07
1.648014989e-10
1.287829102e-07
2.212669519e-10
1.291384695e-07
2.902180464e-10
3.716200987e-10
1.294837535e-07
1.093869153e-07
2.294994801e-10
1.095580272e-07
6.898376243e-10
1.098306134e-07
1.126514968e-09
1.101845785e-07
1.521896868e-09
1.106001576e-07
1.865650348e-09
1.110607469e-07
2.154246908e-09
1.115517801e-07
2.387229522e-09
1.120597365e-07
2.565286322e-09
1.125727687e-07
2.690477309e-09
1.13081461e-07
2.766518689e-09
1.135788224e-07
2.798245465e-09
1.140599466e-07
2.790925217e-09
1.145217599e-07
2.749917923e-09
1.149628086e-07
2.680531545e-09
1.153829832e-07
2.587862697e-09
1.15783207e-07
2.476629259e-09
1.161651515e-07
2.351064333e-09
1.165309927e-07
2.214877664e-09
1.168832052e-07
2.071255874e-09
1.172243931e-07
1.922884053e-09
1.175571578e-07
1.771984524e-09
1.178840017e-07
1.62036892e-09
1.182072617e-07
1.469497121e-09
1.18529067e-07
1.320537199e-09
1.188513169e-07
1.174422895e-09
1.191756717e-07
1.031906365e-09
1.195035554e-07
8.936050652e-10
1.198361622e-07
7.600423734e-10
1.201744681e-07
6.316806299e-10
1.20519244e-07
5.089489611e-10
1.208710681e-07
3.922651262e-10
1.212303386e-07
2.820507397e-10
1.215972882e-07
1.787390257e-10
1.219719937e-07
8.278550987e-11
1.223544034e-07
-5.347250131e-12
1.227442835e-07
-8.510699953e-11
1.231412885e-07
-1.559978474e-10
1.23544923e-07
-2.174506361e-10
1.239545672e-07
-2.689065565e-10
1.243694778e-07
-3.098009206e-10
1.247887905e-07
-3.395731981e-10
1.252115246e-07
-3.576780406e-10
1.256365863e-07
-3.635960254e-10
1.260627735e-07
-3.568449933e-10
1.264887812e-07
-3.369916836e-10
1.269132092e-07
-3.036632994e-10
1.273345697e-07
-2.56558828e-10
1.277512956e-07
-1.954588281e-10
1.281617448e-07
-1.202311645e-10
-3.082593812e-11
1.285641907e-07
1.093730992e-07
1.864006253e-10
1.095030023e-07
5.599344257e-10
1.097129122e-07
9.166049286e-10
1.099910764e-07
1.24373231e-09
1.103240421e-07
1.532684205e-09
1.106990857e-07
1.779202866e-09
1.111046424e-07
1.981672555e-09
1.115301027e-07
2.139825822e-09
1.11966024e-07
2.25455602e-09
1.124045361e-07
2.328006658e-09
1.128394572e-07
2.363324484e-09
1.132661565e-07
2.364225828e-09
1.136813957e-07
2.334678677e-09
1.140831991e-07
2.27872796e-09
1.144707016e-07
2.200360031e-09
1.148439587e-07
2.103371985e-09
1.152037501e-07
1.991272815e-09
1.155513975e-07
1.867230122e-09
1.158886022e-07
1.73405092e-09
1.162173027e-07
1.594183098e-09
1.165395548e-07
1.449731908e-09
1.168574347e-07
1.302488493e-09
1.171729647e-07
1.153966529e-09
1.174880594e-07
1.005442167e-09
1.178044865e-07
8.579955798e-10
1.181238427e-07
7.125501636e-10
1.184475413e-07
5.699066396e-10
1.18776805e-07
4.307789855e-10
1.191126637e-07
2.958223524e-10
1.1945596e-07
1.656531895e-10
1.198073614e-07
4.086399346e-11
1.201673557e-07
-7.794344577e-11
1.205362566e-07
-1.901619057e-10
1.209142058e-07
-2.951638484e-10
1.213011623e-07
-3.923039063e-10
1.216969688e-07
-4.809134093e-10
1.221012907e-07
-5.603195661e-10
1.225136623e-07
-6.298220463e-10
1.229334676e-07
-6.887117054e-10
1.233599459e-07
-7.362793419e-10
1.23792196e-07
-7.718235698e-10
1.242291788e-07
-7.946613817e-10
1.246697226e-07
-8.041402048e-10
1.251125279e-07
-7.996506284e-10
1.255561758e-07
-7.806395506e-10
1.25999136e-07
-7.466234103e-10
1.264397785e-07
-6.972011972e-10
1.268763867e-07
-6.320671324e-10
1.273071788e-07
-5.510233867e-10
-4.539911219e-10
1.27730344e-07
1.093637669e-07
1.526336513e-10
1.094657123e-07
4.579885298e-10
1.096317293e-07
7.505874738e-10
1.09854346e-07
1.021115155e-09
1.10124332e-07
1.26269773e-09
1.104323099e-07
1.471224645e-09
1.10769445e-07
1.644537428e-09
1.111275471e-07
1.78172379e-09
1.114991934e-07
1.882910004e-09
1.118779669e-07
1.949233527e-09
1.122586089e-07
1.982682764e-09
1.126370135e-07
1.985821367e-09
1.1301015e-07
1.961542128e-09
1.133759763e-07
1.912901521e-09
1.13733338e-07
1.842997933e-09
1.140818451e-07
1.754864586e-09
1.144217349e-07
1.65138264e-09
1.147537402e-07
1.535224361e-09
1.150789671e-07
1.408823632e-09
1.153987842e-07
1.274365553e-09
1.15714726e-07
1.133789648e-09
1.160284106e-07
9.888033532e-10
1.163414724e-07
8.409043182e-10
1.166555088e-07
6.914054231e-10
1.169720415e-07
5.414627511e-10
1.172924842e-07
3.921075636e-10
1.1761812e-07
2.442711818e-10
1.179500986e-07
9.880105137e-11
1.182894159e-07
-4.349435801e-11
1.186369055e-07
-1.81835952e-10
1.1899324e-07
-3.154702047e-10
1.193589286e-07
-4.436321052e-10
1.197343232e-07
-5.655566774e-10
1.201196206e-07
-6.804615013e-10
1.205148598e-07
-7.875431659e-10
1.209199232e-07
-8.859767969e-10
1.213345229e-07
-9.749191704e-10
1.217582136e-07
-1.053512781e-09
1.221903906e-07
-1.120888913e-09
1.226302884e-07
-1.176177424e-09
1.230769815e-07
-1.218517181e-09
1.235293874e-07
-1.247067648e-09
1.239862692e-07
-1.261022217e-09
1.244462411e-07
-1.259622702e-09
1.249077761e-07
-1.242174562e-09
1.253692153e-07
-1.208062444e-09
1.258287799e-07
-1.156765526e-09
1.262845851e-07
-1.087872111e-09
1.267346548e-07
-1.001093219e-09
-8.962755184e-10
1.27176939e-07
1.093570909e-07
1.255424292e-10
1.094388301e-07
3.762488345e-10
1.095725644e-07
6.168527674e-10
1.097533722e-07
8.403070468e-10
1.099749312e-07
1.041138616e-09
1.102304703e-07
1.215685606e-09
1.105133249e-07
1.361683108e-09
1.108171543e-07
1.477894837e-09
1.111360929e-07
1.563971846e-09
1.114649351e-07
1.620391702e-09
1.1179928e-07
1.648338194e-09
1.12135579e-07
1.649522544e-09
1.124711134e-07
1.626007718e-09
1.128039439e-07
1.580070805e-09
1.131328453e-07
1.514096229e-09
1.13457224e-07
1.43048546e-09
1.137770236e-07
1.331582512e-09
1.140926275e-07
1.219620002e-09
1.144047648e-07
1.096685781e-09
1.147144244e-07
9.647055255e-10
1.150227756e-07
8.254380858e-10
1.153311e-07
6.804785553e-10
1.156407353e-07
5.312686972e-10
1.159530243e-07
3.791162255e-10
1.162692682e-07
2.252189241e-10
1.165907293e-07
7.064670542e-11
1.169185638e-07
-8.356285193e-11
1.172538295e-07
-2.364641975e-10
1.175974608e-07
-3.871252494e-10
1.179502701e-07
-5.346450351e-10
1.183129312e-07
-6.781314003e-10
1.186859812e-07
-8.166823054e-10
1.190698058e-07
-9.493815771e-10
1.194646377e-07
-1.075293471e-09
1.198705524e-07
-1.193457975e-09
1.202874648e-07
-1.302889236e-09
1.207151233e-07
-1.402577766e-09
1.211531053e-07
-1.491495062e-09
1.216008146e-07
-1.568598578e-09
1.220574779e-07
-1.632841087e-09
1.225221429e-07
-1.683182439e-09
1.229936782e-07
-1.718602958e-09
1.234707748e-07
-1.7381187e-09
1.239519506e-07
-1.740798239e-09
1.244355565e-07
-1.725780506e-09
1.249197873e-07
-1.692293237e-09
1.254026934e-07
-1.639671448e-09
1.258821969e-07
-1.567375193e-09
1.263561101e-07
-1.475006062e-09
-1.362321988e-09
1.268221565e-07
1.093520906e-07
1.034514774e-10
1.094187387e-07
3.096004399e-10
1.095281863e-07
5.074050528e-10
1.09677109e-07
6.913843163e-10
1.098611049e-07
8.571429574e-10
1.100752646e-07
1.001526358e-09
1.103145742e-07
1.122374024e-09
1.10574146e-07
1.218323624e-09
1.108493798e-07
1.288738519e-09
1.111361141e-07
1.333657767e-09
1.114307439e-07
1.353708578e-09
1.117302818e-07
1.349984703e-09
1.120323671e-07
1.323922246e-09
1.123352459e-07
1.277191797e-09
1.12637733e-07
1.211608759e-09
1.129391604e-07
1.129057542e-09
1.132393137e-07
1.031428757e-09
1.135383621e-07
9.205711633e-10
1.138367884e-07
7.982591209e-10
1.141353218e-07
6.661718236e-10
1.144348766e-07
5.258829491e-10
1.14736493e-07
3.788618613e-10
1.150412833e-07
2.264781444e-10
1.153504318e-07
6.996769522e-11
1.15665063e-07
-8.941224906e-11
1.159863103e-07
-2.50600413e-10
1.163152464e-07
-4.124987585e-10
1.166528624e-07
-5.740801431e-10
1.170000709e-07
-7.343338193e-10
1.173576772e-07
-8.92251519e-10
1.177263662e-07
-1.046820765e-09
1.181066981e-07
-1.197014507e-09
1.184990979e-07
-1.341781476e-09
1.18903845e-07
-1.480040566e-09
1.193210643e-07
-1.610677322e-09
1.197507177e-07
-1.732542787e-09
1.20192595e-07
-1.844455332e-09
1.206463048e-07
-1.945205249e-09
1.211112675e-07
-2.03356163e-09
1.215867087e-07
-2.108282347e-09
1.220716534e-07
-2.168127034e-09
1.225649233e-07
-2.211872582e-09
1.23065136e-07
-2.238330962e-09
1.235707073e-07
-2.246369039e-09
1.240798568e-07
-2.234929836e-09
1.245906183e-07
-2.20305471e-09
1.251008524e-07
-2.14990581e-09
1.256082653e-07
-2.074787939e-09
1.261104284e-07
-1.97716882e-09
-1.856697015e-09
1.266048039e-07
1.093482589e-07
8.519234255e-11
1.094033584e-07
2.545011774e-10
1.094941121e-07
4.16651633e-10
1.096182216e-07
5.672751674e-10
1.097725724e-07
7.027926488e-10
1.099535923e-07
8.205069868e-10
1.101575315e-07
9.184352964e-10
1.103806546e-07
9.952009386e-10
1.106193856e-07
1.050007921e-09
1.108704312e-07
1.082612315e-09
1.111308801e-07
1.093259813e-09
1.113982639e-07
1.082600864e-09
1.116705839e-07
1.051602111e-09
1.119463106e-07
1.001464728e-09
1.122243667e-07
9.335522585e-10
1.125040956e-07
8.493281672e-10
1.127852202e-07
7.50303878e-10
1.130677938e-07
6.379972899e-10
1.133521509e-07
5.139018093e-10
1.136388534e-07
3.794691486e-10
1.139286386e-07
2.360975985e-10
1.142224023e-07
8.509792157e-11
1.145210971e-07
-7.221688293e-11
1.148257318e-07
-2.346670878e-10
1.151373832e-07
-4.010637171e-10
1.154570772e-07
-5.702945641e-10
1.157858397e-07
-7.412614662e-10
1.161246367e-07
-9.128776077e-10
1.164743653e-07
-1.084062837e-09
1.168358422e-07
-1.253728909e-09
1.17209788e-07
-1.420766901e-09
1.175968114e-07
-1.584037879e-09
1.179973953e-07
-1.742365256e-09
1.184118842e-07
-1.894529188e-09
1.188404701e-07
-2.039263141e-09
1.192831799e-07
-2.175252813e-09
1.19739862e-07
-2.301137849e-09
1.20210173e-07
-2.41551662e-09
1.206935653e-07
-2.516954073e-09
1.211892761e-07
-2.603992906e-09
1.216963178e-07
-2.675168155e-09
1.222134708e-07
-2.729025062e-09
1.227392803e-07
-2.764139997e-09
1.232720556e-07
-2.779144119e-09
1.238098751e-07
-2.772749133e-09
1.243505948e-07
-2.743774388e-09
1.248918633e-07
-2.691174441e-09
1.254311412e-07
-2.6140661e-09
1.259657261e-07
-2.511753783e-09
-2.383752067e-09
1.264927813e-07
1.093452558e-07
6.993660034e-11
1.093913068e-07
2.084507396e-10
1.094673487e-07
3.406102703e-10
1.095717733e-07
4.628512127e-10
1.097023579e-07
5.722086156e-10
1.098564986e-07
6.663666632e-10
1.100314012e-07
7.435330183e-10
1.102242268e-07
8.023754693e-10
1.104322129e-07
8.420219194e-10
1.106527757e-07
8.620494981e-10
1.108835937e-07
8.624418357e-10
1.111226645e-07
8.435299072e-10
1.113683375e-07
8.059289274e-10
1.116193244e-07
7.504774901e-10
1.118746953e-07
6.781810231e-10
1.121338621e-07
5.901610478e-10
1.123965534e-07
4.876123212e-10
1.126627789e-07
3.717716433e-10
1.129327938e-07
2.438868859e-10
1.13207078e-07
1.051848136e-10
1.134862595e-07
-4.308415142e-11
1.137710984e-07
-1.997411449e-10
1.140624854e-07
-3.636040393e-10
1.143613519e-07
-5.335336701e-10
1.146686951e-07
-7.08407219e-10
1.149855111e-07
-8.87111011e-10
1.153127901e-07
-1.068541127e-09
1.156515e-07
-1.251588177e-09
1.160025633e-07
-1.435126691e-09
1.163668384e-07
-1.618004351e-09
1.167451028e-07
-1.799031246e-09
1.171380362e-07
-1.976970821e-09
1.175462037e-07
-2.150532232e-09
1.17970039e-07
-2.318364176e-09
1.184098269e-07
-2.479050907e-09
1.188656846e-07
-2.63111081e-09
1.193375443e-07
-2.772997866e-09
1.198251338e-07
-2.903106443e-09
1.203279595e-07
-3.019779747e-09
1.208452892e-07
-3.121322196e-09
1.213761377e-07
-3.206015898e-09
1.219192545e-07
-3.272141255e-09
1.224731165e-07
-3.318001611e-09
1.23035924e-07
-3.341951615e-09
1.236056034e-07
-3.342428638e-09
1.241798151e-07
-3.317986204e-09
1.247559688e-07
-3.267328324e-09
1.25331246e-07
-3.189343452e-09
1.259026286e-07
-3.083136539e-09
-2.948057613e-09
1.26466934e-07
1.093428518e-07
5.708515931e-11
1.093816638e-07
1.696395338e-10
1.094458972e-07
2.763774944e-10
1.09534424e-07
3.743249744e-10
1.096456525e-07
4.609804614e-10
1.097776835e-07
5.343358229e-10
1.099284411e-07
5.927754489e-10
1.100957808e-07
6.350356219e-10
1.102775858e-07
6.602167511e-10
1.10471851e-07
6.677841759e-10
1.106767517e-07
6.575410417e-10
1.108906945e-07
6.295869242e-10
1.111123499e-07
5.842732422e-10
1.11340669e-07
5.221581219e-10
1.115748872e-07
4.439626235e-10
1.118145169e-07
3.50531135e-10
1.120593347e-07
2.427943651e-10
1.123093595e-07
1.217467134e-10
1.125648308e-07
-1.158457601e-11
1.128261533e-07
-1.561377755e-10
1.130939282e-07
-3.108592526e-10
1.133688685e-07
-4.746815197e-10
1.136518058e-07
-6.465414246e-10
1.139436424e-07
-8.253704111e-10
1.142453347e-07
-1.010099848e-09
1.145578758e-07
-1.199652787e-09
1.148822722e-07
-1.392938248e-09
1.152195233e-07
-1.588839915e-09
1.15570602e-07
-1.786205665e-09
1.159364357e-07
-1.983837994e-09
1.163178886e-07
-2.180483566e-09
1.167157418e-07
-2.37482323e-09
1.171306737e-07
-2.565463465e-09
1.175632393e-07
-2.750929339e-09
1.180138477e-07
-2.929659423e-09
1.184827399e-07
-3.100003309e-09
1.18969964e-07
-3.26022228e-09
1.194753511e-07
-3.408493674e-09
1.19998491e-07
-3.542919487e-09
1.205387088e-07
-3.661539666e-09
1.210950439e-07
-3.762350509e-09
1.216662315e-07
-3.843328382e-09
1.22250689e-07
-3.902458761e-09
1.228465079e-07
-3.937770327e-09
1.234514525e-07
-3.947373378e-09
1.240629674e-07
-3.929501337e-09
1.246781925e-07
-3.882553885e-09
1.252939889e-07
-3.805140131e-09
1.259069722e-07
-3.696119848e-09
-3.554640374e-09
1.265135551e-07
1.093408896e-07
4.619603041e-11
1.093737967e-07
1.367332921e-10
1.094283719e-07
2.218029245e-10
1.095038293e-07
2.988679017e-10
1.095990322e-07
3.6577762e-10
1.097126001e-07
4.207678019e-10
1.098429999e-07
4.623753765e-10
1.099886255e-07
4.894097352e-10
1.101478721e-07
5.009699311e-10
1.103192037e-07
4.964523411e-10
1.105012097e-07
4.755348498e-10
1.10692648e-07
4.381484175e-10
1.108924758e-07
3.844451986e-10
1.110998682e-07
3.147654674e-10
1.113142276e-07
2.296030546e-10
1.115351847e-07
1.295737782e-10
1.117626157e-07
1.536319442e-11
1.119965287e-07
-1.121664927e-10
1.122371976e-07
-2.522536913e-10
1.124850474e-07
-4.039876775e-10
1.127406526e-07
-5.664645206e-10
1.130047172e-07
-7.387460412e-10
1.132780509e-07
-9.198750875e-10
1.135615546e-07
-1.108874205e-09
1.138561985e-07
-1.304744091e-09
1.141630029e-07
-1.506457712e-09
1.144830174e-07
-1.712953372e-09
1.148173033e-07
-1.923126124e-09
1.151669152e-07
-2.135817422e-09
1.15532882e-07
-2.349804273e-09
1.159161873e-07
-2.56378799e-09
1.163177479e-07
-2.776383038e-09
1.167383918e-07
-2.986106756e-09
1.17178833e-07
-3.191370407e-09
1.176396456e-07
-3.390472153e-09
1.181212346e-07
-3.581592691e-09
1.186238064e-07
-3.762794292e-09
1.191473366e-07
-3.932023926e-09
1.196915385e-07
-4.087121267e-09
1.202558314e-07
-4.225832381e-09
1.20839311e-07
-4.345829847e-09
1.214407227e-07
-4.444739797e-09
1.220584403e-07
-4.520175977e-09
1.226904508e-07
-4.569780631e-09
1.23334349e-07
-4.591271574e-09
1.239873418e-07
-4.582494116e-09
1.246462637e-07
-4.541475824e-09
1.253076052e-07
-4.466481857e-09
1.259675533e-07
-4.356068368e-09
-4.209130913e-09
1.266220436e-07
1.093392579e-07
3.693863801e-11
1.093672573e-07
1.087346749e-10
1.094137867e-07
1.752739632e-10
1.094783093e-07
2.3434543e-10
1.09560022e-07
2.840648137e-10
1.096579305e-07
3.228589303e-10
1.097709144e-07
3.493911207e-10
1.098977849e-07
3.625389131e-10
1.100373422e-07
3.614123288e-10
1.101884289e-07
3.453654731e-10
1.10349975e-07
3.139885033e-10
1.105210366e-07
2.670865942e-10
1.10700824e-07
2.046576202e-10
1.108887201e-07
1.26869094e-10
1.110842947e-07
3.402819206e-11
1.112872932e-07
-7.342504254e-11
1.114976327e-07
-1.949766824e-10
1.117154741e-07
-3.300081909e-10
1.119410849e-07
-4.77864684e-10
1.121749168e-07
-6.37819493e-10
1.124175572e-07
-8.091047853e-10
1.126697253e-07
-9.909138203e-10
1.129322537e-07
-1.182403401e-09
1.13206073e-07
-1.382693454e-09
1.134921932e-07
-1.590864526e-09
1.137916886e-07
-1.805953498e-09
1.141056818e-07
-2.026946729e-09
1.144353266e-07
-2.252770895e-09
1.147817914e-07
-2.482281848e-09
1.151462401e-07
-2.714252296e-09
1.155298116e-07
-2.947358767e-09
1.159335975e-07
-3.180168323e-09
1.163586167e-07
-3.411125657e-09
1.168057875e-07
-3.638541277e-09
1.172758965e-07
-3.860581438e-09
1.177695643e-07
-4.075260688e-09
1.182872078e-07
-4.280437963e-09
1.18829001e-07
-4.473817223e-09
1.193948335e-07
-4.652953753e-09
1.199842686e-07
-4.815267345e-09
1.205965024e-07
-4.958063568e-09
1.212303269e-07
-5.078564009e-09
1.218840973e-07
-5.173945891e-09
1.22555708e-07
-5.241390959e-09
1.232425797e-07
-5.278143112e-09
1.239416591e-07
-5.281573535e-09
1.246494344e-07
-5.24925087e-09
1.253619658e-07
-5.179013088e-09
1.260749345e-07
-5.069037442e-09
-4.917904473e-09
1.267837072e-07
1.09337876e-07
2.906308981e-11
1.093617215e-07
8.488980128e-11
1.094014272e-07
1.355686392e-10
1.094566401e-07
1.791325001e-10
1.095268052e-07
2.138994801e-10
1.096112189e-07
2.384449281e-10
1.097090754e-07
2.515343021e-10
1.098195096e-07
2.521043821e-10
1.099416419e-07
2.392798647e-10
1.100746209e-07
2.12386295e-10
1.102176598e-07
1.709493965e-10
1.103700655e-07
1.146806715e-10
1.105312614e-07
4.346148201e-11
1.107008098e-07
-4.26795523e-11
1.108784207e-07
-1.435830013e-10
1.110639714e-07
-2.589762295e-10
1.1125749e-07
-3.884956332e-10
1.114591741e-07
-5.316925475e-10
1.116693621e-07
-6.880527318e-10
1.118885445e-07
-8.570017999e-10
1.121173513e-07
-1.037911157e-09
1.123565406e-07
-1.230102849e-09
1.12606988e-07
-1.432850489e-09
1.128696736e-07
-1.645379027e-09
1.131456713e-07
-1.866862324e-09
1.134361359e-07
-2.096418204e-09
1.1374229e-07
-2.333100742e-09
1.140654093e-07
-2.575889963e-09
1.144068072e-07
-2.823679282e-09
1.147678166e-07
-3.075261165e-09
1.151497698e-07
-3.329311513e-09
1.155539749e-07
-3.584373268e-09
1.159816891e-07
-3.838839886e-09
1.16434087e-07
-4.090939394e-09
1.169122253e-07
-4.338719842e-09
1.174170017e-07
-4.580037095e-09
1.179491099e-07
-4.812546209e-09
1.185089903e-07
-5.0336978e-09
1.190967775e-07
-5.240741022e-09
1.197122451e-07
-5.430734827e-09
1.203547508e-07
-5.60056918e-09
1.210231846e-07
-5.746997809e-09
1.217159225e-07
-5.866683564e-09
1.224307888e-07
-5.956256659e-09
1.231650316e-07
-6.012385301e-09
1.239153158e-07
-6.031857382e-09
1.246777356e-07
-6.011670579e-09
1.254478487e-07
-5.949126604e-09
1.262207349e-07
-5.841924446e-09
-5.688246701e-09
1.269910763e-07
1.093366847e-07
2.23788271e-11
1.093569514e-07
6.462365088e-11
1.093907672e-07
1.017531107e-10
1.094379164e-07
1.319833223e-10
1.094980295e-07
1.53786227e-10
1.095706231e-07
1.658510739e-10
1.096551346e-07
1.670225988e-10
1.097509548e-07
1.562840948e-10
1.098574627e-07
1.327718023e-10
1.099740445e-07
9.580433898e-11
1.101001296e-07
4.486422214e-11
1.10235238e-07
-2.042795662e-11
1.103789759e-07
-1.002766381e-10
1.105310637e-07
-1.947676015e-10
1.106913459e-07
-3.03865606e-10
1.108598043e-07
-4.274350216e-10
1.110365601e-07
-5.652517221e-10
1.1122188e-07
-7.170125823e-10
1.114161726e-07
-8.823452061e-10
1.116199856e-07
-1.060814556e-09
1.118340015e-07
-1.251926656e-09
1.120590309e-07
-1.455131945e-09
1.12296007e-07
-1.669826377e-09
1.125459786e-07
-1.895350468e-09
1.128101022e-07
-2.130985975e-09
1.130896339e-07
-2.37594991e-09
1.133859189e-07
-2.62938567e-09
1.137003805e-07
-2.89035122e-09
1.140345061e-07
-3.1578045e-09
1.143898316e-07
-3.430586415e-09
1.147679221e-07
-3.707401841e-09
1.151703479e-07
-3.986799168e-09
1.155986568e-07
-4.267148947e-09
1.160543397e-07
-4.54662238e-09
1.165387905e-07
-4.823170477e-09
1.170532586e-07
-5.094505062e-09
1.175987956e-07
-5.358083122e-09
1.18176194e-07
-5.611096461e-09
1.187859217e-07
-5.850468904e-09
1.1942805e-07
-6.072863332e-09
1.201021818e-07
-6.274700914e-09
1.208073788e-07
-6.452194904e-09
1.215420964e-07
-6.601401174e-09
1.223041267e-07
-6.718286679e-09
1.230905579e-07
-6.798815769e-09
1.23897754e-07
-6.839052933e-09
1.247213625e-07
-6.835279011e-09
1.25556351e-07
-6.784115706e-09
1.263970765e-07
-6.682651269e-09
-6.528558821e-09
1.272373874e-07
1.093356395e-07
1.673972847e-11
1.093527685e-07
4.749521394e-11
1.093814118e-07
7.311004343e-11
1.09421459e-07
9.193626181e-11
1.094726852e-07
1.025600161e-10
1.095347786e-07
1.037575753e-10