/*--------------------------------*- C++ -*----------------------------------*\
| =========                 |                                                 |
| \\      /  F ield         | foam-extend: Open Source CFD                    |
|  \\    /   O peration     | Version:     4.1                                |
|   \\  /    A nd           | Web:         http://www.foam-extend.org         |
|    \\/     M anipulation  |                                                 |
\*---------------------------------------------------------------------------*/
FoamFile
{
    version     2.0;
    format      ascii;
    class       volVectorField;
    location    "190000";
    object      U;
}
// * * * * * * * * * * * * * * * * * * * * * * * * * * * * * * * * * * * * * //

dimensions      [0 1 -1 0 0 0 0];

internalField   nonuniform List<vector> 
15920
(
(0.0002132409804 5.12317394e-06 0)
(0.0002058447119 1.131530328e-05 0)
(0.0001957149243 1.373619355e-05 0)
(0.0001821641908 1.422007143e-05 0)
(0.000167731741 1.377235951e-05 0)
(0.0001540724782 1.270086139e-05 0)
(0.0001414519741 1.119067051e-05 0)
(0.00012979067 9.466511114e-06 0)
(0.0001191642077 7.727267666e-06 0)
(0.0001096943976 6.100221836e-06 0)
(0.000101407535 4.653981637e-06 0)
(9.424272657e-05 3.42042445e-06 0)
(8.810722995e-05 2.40579356e-06 0)
(8.290190993e-05 1.597597484e-06 0)
(7.852383115e-05 9.723271126e-07 0)
(7.486820338e-05 5.021267175e-07 0)
(7.183366082e-05 1.590013784e-07 0)
(6.932659776e-05 -8.290134566e-08 0)
(6.726298458e-05 -2.461505207e-07 0)
(6.556873272e-05 -3.496425052e-07 0)
(6.417955354e-05 -4.087186154e-07 0)
(6.304052496e-05 -4.355538647e-07 0)
(6.210537761e-05 -4.396396835e-07 0)
(6.133561523e-05 -4.282831804e-07 0)
(6.069952665e-05 -4.069808667e-07 0)
(6.017120045e-05 -3.797596159e-07 0)
(5.972961501e-05 -3.495022068e-07 0)
(5.935781706e-05 -3.182200386e-07 0)
(5.904218634e-05 -2.872668165e-07 0)
(5.877178872e-05 -2.575032226e-07 0)
(5.853782036e-05 -2.294236647e-07 0)
(5.833313994e-05 -2.03254293e-07 0)
(5.815188115e-05 -1.790293862e-07 0)
(5.79891364e-05 -1.566512174e-07 0)
(5.784070224e-05 -1.359369407e-07 0)
(5.770287755e-05 -1.166548502e-07 0)
(5.757230645e-05 -9.855151742e-08 0)
(5.744585902e-05 -8.137095855e-08 0)
(5.73205442e-05 -6.486726326e-08 0)
(5.719344971e-05 -4.881267529e-08 0)
(5.706170429e-05 -3.300309839e-08 0)
(5.692245749e-05 -1.726227393e-08 0)
(5.677287318e-05 -1.445059982e-09 0)
(5.661013377e-05 1.456023241e-08 0)
(5.643145281e-05 3.083062745e-08 0)
(5.623409468e-05 4.740849667e-08 0)
(5.601539933e-05 6.430287948e-08 0)
(5.577281066e-05 8.149101881e-08 0)
(5.550390764e-05 9.892052388e-08 0)
(5.520643667e-05 1.165126159e-07 0)
(0.0002201183987 5.652554413e-06 0)
(0.0002251673967 1.296378061e-05 0)
(0.0002303359432 1.664050326e-05 0)
(0.0002340102539 1.858869327e-05 0)
(0.0002359112461 1.971147513e-05 0)
(0.0002362650336 2.013179733e-05 0)
(0.0002352520392 1.989469466e-05 0)
(0.0002330343695 1.914306462e-05 0)
(0.0002298428868 1.803503298e-05 0)
(0.0002259411748 1.669350636e-05 0)
(0.0002215674462 1.521410043e-05 0)
(0.0002169164756 1.367753246e-05 0)
(0.000212145837 1.21503146e-05 0)
(0.0002073822881 1.068280329e-05 0)
(0.0002027235183 9.309781601e-06 0)
(0.0001982399333 8.0528107e-06 0)
(0.0001939786327 6.922772185e-06 0)
(0.0001899682362 5.922224029e-06 0)
(0.0001862231846 5.047610617e-06 0)
(0.0001827472639 4.291246565e-06 0)
(0.0001795365265 3.642957168e-06 0)
(0.0001765816879 3.091347428e-06 0)
(0.000173869984 2.624738436e-06 0)
(0.0001713866556 2.231837148e-06 0)
(0.0001691159863 1.902109986e-06 0)
(0.0001670419767 1.625996406e-06 0)
(0.0001651488127 1.395035338e-06 0)
(0.0001634211904 1.201905228e-06 0)
(0.0001618445202 1.040390299e-06 0)
(0.0001604050331 9.052998188e-07 0)
(0.0001590898163 7.923636309e-07 0)
(0.0001578868008 6.981184638e-07 0)
(0.0001567847158 6.197938391e-07 0)
(0.0001557730247 5.552032836e-07 0)
(0.0001548418506 5.026443453e-07 0)
(0.0001539818987 4.608091936e-07 0)
(0.00015318438 4.287063348e-07 0)
(0.0001524409402 4.055932634e-07 0)
(0.0001517435956 3.909193893e-07 0)
(0.0001510846749 3.842777928e-07 0)
(0.000150456771 3.853643493e-07 0)
(0.0001498527006 3.939431134e-07 0)
(0.000149265474 4.098170544e-07 0)
(0.0001486882751 4.328033783e-07 0)
(0.0001481144502 4.627128962e-07 0)
(0.0001475375071 4.993328939e-07 0)
(0.0001469511209 5.424153041e-07 0)
(0.0001463491468 5.916669431e-07 0)
(0.0001457256414 6.46741546e-07 0)
(0.0001450748894 7.072344048e-07 0)
(0.0002187777733 1.481172044e-06 0)
(0.0002200314328 4.430504793e-06 0)
(0.0002226038926 7.085409549e-06 0)
(0.0002259321988 9.460328392e-06 0)
(0.0002294838863 1.157646017e-05 0)
(0.0002330262237 1.331708341e-05 0)
(0.0002363898774 1.458512503e-05 0)
(0.0002393813698 1.537573191e-05 0)
(0.0002418518886 1.573418714e-05 0)
(0.0002437333217 1.571832984e-05 0)
(0.0002450187108 1.539178833e-05 0)
(0.0002457370084 1.482352865e-05 0)
(0.0002459404535 1.40822446e-05 0)
(0.0002456963916 1.322989088e-05 0)
(0.000245078582 1.231818456e-05 0)
(0.0002441599637 1.138796557e-05 0)
(0.0002430083106 1.046991673e-05 0)
(0.0002416841735 9.585768456e-06 0)
(0.0002402400416 8.749744548e-06 0)
(0.0002387201942 7.970102469e-06 0)
(0.0002371610591 7.25059449e-06 0)
(0.0002355919209 6.591734478e-06 0)
(0.0002340358038 5.99183311e-06 0)
(0.000232510347 5.447824502e-06 0)
(0.000231028621 4.955856408e-06 0)
(0.0002295999654 4.511724069e-06 0)
(0.0002282307284 4.111194181e-06 0)
(0.0002269248564 3.7502247e-06 0)
(0.0002256843727 3.425095929e-06 0)
(0.0002245097721 3.132477468e-06 0)
(0.0002234003426 2.869452357e-06 0)
(0.0002223544206 2.633513013e-06 0)
(0.0002213695914 2.422539062e-06 0)
(0.0002204428438 2.234764489e-06 0)
(0.000219570689 2.068739323e-06 0)
(0.0002187492515 1.923289239e-06 0)
(0.0002179743372 1.797474871e-06 0)
(0.0002172414854 1.690552015e-06 0)
(0.0002165460084 1.601933981e-06 0)
(0.000215883021 1.531155739e-06 0)
(0.0002152474648 1.477840239e-06 0)
(0.0002146341293 1.441667565e-06 0)
(0.0002140376715 1.422347131e-06 0)
(0.0002134526348 1.419592647e-06 0)
(0.0002128734698 1.433099572e-06 0)
(0.0002122945583 1.46252507e-06 0)
(0.0002117102387 1.50746845e-06 0)
(0.0002111148313 1.56745509e-06 0)
(0.0002105026679 1.641923919e-06 0)
(0.000209868125 1.73021744e-06 0)
(0.0002187697228 1.502580071e-06 0)
(0.0002194905567 4.371433171e-06 0)
(0.0002207553109 6.803333223e-06 0)
(0.0002223805818 8.685565298e-06 0)
(0.00022420879 1.011265655e-05 0)
(0.0002262075627 1.118786746e-05 0)
(0.0002283720237 1.19587057e-05 0)
(0.0002306456328 1.245751524e-05 0)
(0.000232940779 1.27212536e-05 0)
(0.0002351783513 1.278488167e-05 0)
(0.0002372973435 1.267787336e-05 0)
(0.0002392503769 1.242756323e-05 0)
(0.0002410029542 1.206131768e-05 0)
(0.0002425352076 1.160564625e-05 0)
(0.0002438413105 1.108495202e-05 0)
(0.0002449266351 1.052096084e-05 0)
(0.0002458045116 9.932505113e-06 0)
(0.0002464934636 9.335361055e-06 0)
(0.0002470149464 8.742194232e-06 0)
(0.0002473915102 8.162701012e-06 0)
(0.0002476454103 7.603915846e-06 0)
(0.0002477976701 7.070603154e-06 0)
(0.0002478675197 6.565671417e-06 0)
(0.0002478721078 6.090566684e-06 0)
(0.0002478264174 5.645674908e-06 0)
(0.0002477433353 5.23066229e-06 0)
(0.0002476337889 4.844731414e-06 0)
(0.0002475069073 4.4868175e-06 0)
(0.0002473701957 4.15574011e-06 0)
(0.0002472297152 3.850315989e-06 0)
(0.0002470902565 3.569437538e-06 0)
(0.0002469554955 3.312122886e-06 0)
(0.0002468281312 3.077543606e-06 0)
(0.0002467100032 2.865035409e-06 0)
(0.0002466021921 2.674096298e-06 0)
(0.0002465051046 2.504376042e-06 0)
(0.0002464185436 2.355658873e-06 0)
(0.0002463417691 2.227841943e-06 0)
(0.0002462735487 2.120912015e-06 0)
(0.0002462121999 2.034920141e-06 0)
(0.0002461556269 1.969955696e-06 0)
(0.000246101355 1.926121071e-06 0)
(0.0002460465618 1.903507008e-06 0)
(0.0002459881073 1.902168797e-06 0)
(0.0002459225639 1.922103773e-06 0)
(0.0002458462444 1.963230359e-06 0)
(0.0002457552325 2.025367215e-06 0)
(0.0002456454167 2.108215242e-06 0)
(0.0002455125256 2.211342756e-06 0)
(0.0002453521645 2.334172953e-06 0)
(0.0002187106149 1.05431788e-06 0)
(0.0002191104396 3.065837683e-06 0)
(0.0002199132278 4.855785757e-06 0)
(0.0002210370705 6.365362471e-06 0)
(0.0002223481617 7.606642957e-06 0)
(0.0002237648367 8.60412511e-06 0)
(0.0002252530305 9.365351158e-06 0)
(0.0002267852129 9.897240901e-06 0)
(0.0002283291578 1.021998625e-05 0)
(0.0002298575463 1.036209315e-05 0)
(0.0002313516559 1.035220827e-05 0)
(0.0002327973495 1.021679461e-05 0)
(0.0002341822924 9.980585593e-06 0)
(0.0002354965145 9.666407903e-06 0)
(0.0002367334747 9.29454956e-06 0)
(0.0002378900918 8.882462461e-06 0)
(0.0002389662001 8.444813434e-06 0)
(0.0002399640127 7.993648934e-06 0)
(0.0002408876553 7.538586379e-06 0)
(0.0002417426782 7.08705588e-06 0)
(0.0002425355537 6.644596284e-06 0)
(0.0002432732266 6.215173628e-06 0)
(0.0002439627539 5.801491303e-06 0)
(0.0002446110329 5.405276161e-06 0)
(0.0002452246064 5.02753924e-06 0)
(0.0002458095343 4.668791372e-06 0)
(0.0002463713177 4.329210908e-06 0)
(0.0002469148611 4.008777104e-06 0)
(0.0002474444618 3.707376799e-06 0)
(0.0002479638201 3.424884835e-06 0)
(0.0002484760617 3.161219965e-06 0)
(0.0002489837648 2.916380549e-06 0)
(0.0002494889897 2.690464568e-06 0)
(0.0002499933076 2.48367761e-06 0)
(0.0002504978283 2.296331426e-06 0)
(0.0002510032251 2.128835611e-06 0)
(0.0002515097556 1.981679909e-06 0)
(0.0002520172827 1.855421342e-06 0)
(0.0002525252918 1.750665824e-06 0)
(0.0002530329045 1.668043554e-06 0)
(0.0002535388926 1.608185208e-06 0)
(0.0002540416923 1.571698785e-06 0)
(0.0002545394176 1.559145662e-06 0)
(0.0002550298742 1.571016651e-06 0)
(0.0002555105757 1.607708924e-06 0)
(0.0002559787594 1.669503683e-06 0)
(0.0002564314058 1.756546151e-06 0)
(0.000256865261 1.8688262e-06 0)
(0.0002572768598 2.006160226e-06 0)
(0.0002576625522 2.168175506e-06 0)
(0.0002186949605 8.148064887e-07 0)
(0.0002189757189 2.409519608e-06 0)
(0.0002195577022 3.893148759e-06 0)
(0.0002204017539 5.201109371e-06 0)
(0.0002214162276 6.306493269e-06 0)
(0.0002225315652 7.207158835e-06 0)
(0.0002237099961 7.906901023e-06 0)
(0.0002249240145 8.412668813e-06 0)
(0.0002261455749 8.738454776e-06 0)
(0.0002273500403 8.904269655e-06 0)
(0.0002285205708 8.932099829e-06 0)
(0.0002296472318 8.843619154e-06 0)
(0.0002307244124 8.659734077e-06 0)
(0.0002317495319 8.400239842e-06 0)
(0.0002327226412 8.083163322e-06 0)
(0.0002336459136 7.72426218e-06 0)
(0.0002345229548 7.336887992e-06 0)
(0.0002353582341 6.932081715e-06 0)
(0.000236156715 6.5187578e-06 0)
(0.000236923592 6.103932141e-06 0)
(0.000237664071 5.69298381e-06 0)
(0.0002383831911 5.289930084e-06 0)
(0.0002390856985 4.897691256e-06 0)
(0.0002397759654 4.51833096e-06 0)
(0.0002404579419 4.153267301e-06 0)
(0.0002411351345 3.803452903e-06 0)
(0.0002418106048 3.469523547e-06 0)
(0.0002424869818 3.151918519e-06 0)
(0.00024316648 2.850975787e-06 0)
(0.0002438509203 2.567004178e-06 0)
(0.0002445417527 2.300335688e-06 0)
(0.0002452400796 2.051360552e-06 0)
(0.000245946676 1.820547838e-06 0)
(0.0002466620083 1.608457296e-06 0)
(0.0002473862484 1.415741838e-06 0)
(0.0002481192821 1.243152472e-06 0)
(0.0002488607228 1.09150363e-06 0)
(0.0002496099254 9.616676299e-07 0)
(0.0002503659831 8.545663428e-07 0)
(0.0002511277281 7.711462854e-07 0)
(0.0002518937392 7.123531026e-07 0)
(0.0002526623465 6.791076257e-07 0)
(0.0002534316358 6.722809607e-07 0)
(0.0002541994546 6.926689073e-07 0)
(0.000254963421 7.409661089e-07 0)
(0.0002557209322 8.177406718e-07 0)
(0.0002564691758 9.234103186e-07 0)
(0.0002572051438 1.05821997e-06 0)
(0.0002579256501 1.222219987e-06 0)
(0.0002586273494 1.415241326e-06 0)
(0.0002186863756 6.486956312e-07 0)
(0.0002188948011 1.923820175e-06 0)
(0.000219326938 3.125269403e-06 0)
(0.0002199642727 4.202894229e-06 0)
(0.000220750528 5.130142782e-06 0)
(0.0002216380355 5.900709536e-06 0)
(0.0002225962536 6.51612128e-06 0)
(0.0002236010427 6.980303565e-06 0)
(0.0002246282281 7.300643194e-06 0)
(0.0002256554824 7.488689168e-06 0)
(0.0002266655506 7.558631221e-06 0)
(0.0002276466572 7.525587157e-06 0)
(0.0002285912467 7.404779333e-06 0)
(0.0002294950085 7.211115382e-06 0)
(0.0002303564512 6.95871834e-06 0)
(0.0002311764933 6.660490277e-06 0)
(0.0002319578852 6.327867094e-06 0)
(0.0002327046198 5.970748902e-06 0)
(0.0002334214573 5.597525544e-06 0)
(0.00023411356 5.215156801e-06 0)
(0.0002347862016 4.829297872e-06 0)
(0.000235444539 4.444458572e-06 0)
(0.0002360934489 4.064178034e-06 0)
(0.0002367374211 3.691199047e-06 0)
(0.0002373804971 3.327633172e-06 0)
(0.0002380262422 2.975111178e-06 0)
(0.0002386777408 2.634914068e-06 0)
(0.0002393376075 2.308084392e-06 0)
(0.0002400080075 1.995517713e-06 0)
(0.0002406906811 1.698033795e-06 0)
(0.0002413869708 1.416432676e-06 0)
(0.0002420978469 1.151538219e-06 0)
(0.0002428239338 9.042207673e-07 0)
(0.000243565535 6.754128952e-07 0)
(0.0002443226538 4.661201572e-07 0)
(0.0002450950427 2.774121976e-07 0)
(0.0002458820992 1.104406628e-07 0)
(0.000246682967 -3.358601354e-08 0)
(0.0002474965393 -1.534323245e-07 0)
(0.0002483214512 -2.478495185e-07 0)
(0.0002491560918 -3.155947019e-07 0)
(0.0002499986144 -3.55456542e-07 0)
(0.0002508469429 -3.662819126e-07 0)
(0.0002516987793 -3.470032659e-07 0)
(0.000252551614 -2.966669077e-07 0)
(0.0002534027383 -2.144609836e-07 0)
(0.00025424926 -9.974214512e-08 0)
(0.0002550881202 4.793977813e-08 0)
(0.0002559161117 2.288210641e-07 0)
(0.000256729871 4.429090946e-07 0)
(0.0002186800179 5.229180414e-07 0)
(0.0002188382653 1.551852562e-06 0)
(0.0002191685379 2.529382113e-06 0)
(0.0002196628465 3.420613052e-06 0)
(0.0002202849374 4.203353333e-06 0)
(0.0002210011721 4.867818939e-06 0)
(0.0002217872827 5.410698138e-06 0)
(0.0002226231762 5.83186457e-06 0)
(0.0002234894839 6.134462811e-06 0)
(0.0002243683722 6.325236323e-06 0)
(0.0002252452957 6.413639143e-06 0)
(0.0002261094344 6.410533876e-06 0)
(0.0002269531288 6.327324784e-06 0)
(0.0002277713056 6.175490343e-06 0)
(0.0002285611809 5.966207966e-06 0)
(0.0002293220088 5.710001417e-06 0)
(0.0002300547243 5.416486877e-06 0)
(0.0002307615358 5.094244266e-06 0)
(0.0002314455565 4.75077956e-06 0)
(0.0002321104998 4.392544167e-06 0)
(0.0002327604214 4.02499663e-06 0)
(0.0002333995048 3.652696905e-06 0)
(0.000234031889 3.279420839e-06 0)
(0.0002346615399 2.908281866e-06 0)
(0.0002352921599 2.541851418e-06 0)
(0.0002359271269 2.182273349e-06 0)
(0.0002365694577 1.831367252e-06 0)
(0.0002372217918 1.490716575e-06 0)
(0.0002378863829 1.161748318e-06 0)
(0.0002385651029 8.457985282e-07 0)
(0.0002392594472 5.441555012e-07 0)
(0.0002399705834 2.581030206e-07 0)
(0.0002406993119 -1.104477422e-08 0)
(0.0002414460774 -2.619272989e-07 0)
(0.0002422109949 -4.931318578e-07 0)
(0.0002429938236 -7.032041331e-07 0)
(0.0002437940904 -8.906214317e-07 0)
(0.0002446110058 -1.053818412e-06 0)
(0.0002454434762 -1.191215414e-06 0)
(0.0002462901234 -1.301230959e-06 0)
(0.000247149286 -1.382300512e-06 0)
(0.000248019022 -1.432902916e-06 0)
(0.0002488971183 -1.451588794e-06 0)
(0.000249781101 -1.437010233e-06 0)
(0.0002506682485 -1.387951272e-06 0)
(0.0002515556074 -1.303358335e-06 0)
(0.0002524400122 -1.182370041e-06 0)
(0.0002533181102 -1.024345752e-06 0)
(0.0002541863894 -8.288911219e-07 0)
(0.0002550412383 -5.958731466e-07 0)
(0.0002186757096 4.260210828e-07 0)
(0.0002187998988 1.265136898e-06 0)
(0.0002190600364 2.066946024e-06 0)
(0.0002194526612 2.80583052e-06 0)
(0.000219952888 3.46320975e-06 0)
(0.0002205367719 4.028445629e-06 0)
(0.0002211861089 4.496235741e-06 0)
(0.0002218851944 4.864704023e-06 0)
(0.0002226188052 5.134959086e-06 0)
(0.0002233727716 5.310958959e-06 0)
(0.000224135102 5.398921212e-06 0)
(0.0002248963848 5.406487762e-06 0)
(0.0002256495777 5.34205725e-06 0)
(0.0002263896916 5.214354066e-06 0)
(0.0002271135763 5.032099919e-06 0)
(0.0002278197337 4.803721927e-06 0)
(0.0002285080765 4.537124401e-06 0)
(0.0002291796491 4.239548723e-06 0)
(0.0002298363579 3.917508511e-06 0)
(0.0002304807352 3.576775956e-06 0)
(0.0002311157346 3.222404404e-06 0)
(0.000231744552 2.858778202e-06 0)
(0.000232370476 2.489681942e-06 0)
(0.0002329967669 2.118380189e-06 0)
(0.000233626565 1.747703071e-06 0)
(0.0002342628217 1.380120615e-06 0)
(0.0002349082465 1.017828184e-06 0)
(0.0002355652746 6.628202505e-07 0)
(0.0002362360566 3.169444826e-07 0)
(0.0002369224328 -1.804323863e-08 0)
(0.0002376259164 -3.404252358e-07 0)
(0.0002383476718 -6.484934268e-07 0)
(0.0002390885605 -9.405185066e-07 0)
(0.0002398491394 -1.21473133e-06 0)
(0.0002406296435 -1.469317734e-06 0)
(0.0002414299911 -1.70240657e-06 0)
(0.0002422497794 -1.912096744e-06 0)
(0.0002430882767 -2.096455378e-06 0)
(0.0002439444301 -2.253521879e-06 0)
(0.0002448168694 -2.381331532e-06 0)
(0.0002457039043 -2.477942084e-06 0)
(0.000246603526 -2.541461298e-06 0)
(0.0002475134134 -2.570078058e-06 0)
(0.0002484309415 -2.562096122e-06 0)
(0.0002493531943 -2.515969281e-06 0)
(0.0002502769814 -2.43033704e-06 0)
(0.0002511988596 -2.304059706e-06 0)
(0.0002521151584 -2.136251965e-06 0)
(0.0002530220094 -1.926315238e-06 0)
(0.0002539153796 -1.673972504e-06 0)
(0.0002186726148 3.494177532e-07 0)
(0.0002187722508 1.037612537e-06 0)
(0.0002189813171 1.696966654e-06 0)
(0.0002192985748 2.308103648e-06 0)
(0.0002197063997 2.856072349e-06 0)
(0.0002201877169 3.331249156e-06 0)
(0.0002207292219 3.727986666e-06 0)
(0.0002213188865 4.043482051e-06 0)
(0.0002219447118 4.277372294e-06 0)
(0.0002225953428 4.431546259e-06 0)
(0.000223260939 4.509777332e-06 0)
(0.0002239335052 4.517202592e-06 0)
(0.0002246068186 4.459835507e-06 0)
(0.0002252762665 4.344192711e-06 0)
(0.0002259387148 4.177001401e-06 0)
(0.0002265923774 3.964951297e-06 0)
(0.0002272366495 3.714494958e-06 0)
(0.0002278719102 3.431708816e-06 0)
(0.0002284993229 3.122211531e-06 0)
(0.0002291206513 2.791125733e-06 0)
(0.000229738094 2.443072012e-06 0)
(0.0002303541384 2.082187489e-06 0)
(0.0002309714333 1.712165739e-06 0)
(0.0002315926853 1.336296714e-06 0)
(0.0002322205639 9.575435673e-07 0)
(0.0002328576365 5.78591341e-07 0)
(0.0002335063393 2.018866566e-07 0)
(0.0002341689085 -1.702868204e-07 0)
(0.0002348473319 -5.357484378e-07 0)
(0.0002355433536 -8.923840722e-07 0)
(0.0002362584731 -1.238102915e-06 0)
(0.0002369939059 -1.570810586e-06 0)
(0.000237750575 -1.888390824e-06 0)
(0.0002385291015 -2.188688373e-06 0)
(0.0002393297958 -2.4694961e-06 0)
(0.0002401526498 -2.72855066e-06 0)
(0.000240997329 -2.963540507e-06 0)
(0.0002418631621 -3.17211101e-06 0)
(0.0002427491321 -3.35187847e-06 0)
(0.0002436538708 -3.500454256e-06 0)
(0.0002445756539 -3.615472217e-06 0)
(0.0002455123983 -3.694619655e-06 0)
(0.0002464616631 -3.735672784e-06 0)
(0.0002474206555 -3.736535506e-06 0)
(0.0002483862413 -3.695280328e-06 0)
(0.000249354962 -3.610190354e-06 0)
(0.0002503230567 -3.47980102e-06 0)
(0.0002512864907 -3.302940149e-06 0)
(0.000252240989 -3.078765261e-06 0)
(0.0002531820775 -2.806796206e-06 0)
(0.0002186702913 2.875641696e-07 0)
(0.0002187515561 8.534385692e-07 0)
(0.0002189223388 1.396007818e-06 0)
(0.0002191826177 1.900336989e-06 0)
(0.0002195195545 2.354456238e-06 0)
(0.0002199207571 2.750005255e-06 0)
(0.0002203765013 3.081444589e-06 0)
(0.0002208776641 3.345444186e-06 0)
(0.0002214148721 3.540671646e-06 0)
(0.0002219791106 3.667655182e-06 0)
(0.0002225624308 3.728523125e-06 0)
(0.0002231582058 3.726644209e-06 0)
(0.0002237611099 3.666268409e-06 0)
(0.0002243670483 3.552224247e-06 0)
(0.0002249730961 3.389670932e-06 0)
(0.0002255774209 3.183890023e-06 0)
(0.0002261791709 2.940115059e-06 0)
(0.0002267783374 2.663404257e-06 0)
(0.0002273756098 2.358555873e-06 0)
(0.0002279722353 2.03005935e-06 0)
(0.0002285698888 1.682075892e-06 0)
(0.0002291705565 1.318432521e-06 0)
(0.0002297764182 9.426496172e-07 0)
(0.0002303897743 5.579703298e-07 0)
(0.0002310129777 1.673680829e-07 0)
(0.0002316483119 -2.263810916e-07 0)
(0.0002322979567 -6.206442525e-07 0)
(0.0002329639964 -1.012907099e-06 0)
(0.0002336483609 -1.400731122e-06 0)
(0.0002343527692 -1.781711169e-06 0)
(0.0002350787132 -2.153451072e-06 0)
(0.0002358274438 -2.513531475e-06 0)
(0.0002365999516 -2.859487101e-06 0)
(0.0002373969456 -3.188791699e-06 0)
(0.0002382188344 -3.498848879e-06 0)
(0.0002390657094 -3.786989501e-06 0)
(0.0002399373264 -4.050476471e-06 0)
(0.0002408330885 -4.286515818e-06 0)
(0.0002417520287 -4.492273152e-06 0)
(0.0002426927966 -4.66489731e-06 0)
(0.0002436536454 -4.801550684e-06 0)
(0.0002446324243 -4.899445164e-06 0)
(0.0002456265732 -4.955883212e-06 0)
(0.0002466331248 -4.96830317e-06 0)
(0.0002476487125 -4.934327637e-06 0)
(0.0002486695852 -4.851813698e-06 0)
(0.0002496916312 -4.718903415e-06 0)
(0.0002507104091 -4.534072564e-06 0)
(0.0002517211862 -4.296175743e-06 0)
(0.0002527189842 -4.004486688e-06 0)
(0.000218668508 2.368469482e-07 0)
(0.0002187356975 7.02150835e-07 0)
(0.0002188770951 1.147878694e-06 0)
(0.0002190933373 1.562230918e-06 0)
(0.0002193748337 1.935489806e-06 0)
(0.0002197124377 2.260466413e-06 0)
(0.0002200990479 2.531999986e-06 0)
(0.0002205278295 2.746630014e-06 0)
(0.0002209915489 2.902510886e-06 0)
(0.0002214831179 2.99932252e-06 0)
(0.0002219961829 3.038078197e-06 0)
(0.0002225253361 3.020870311e-06 0)
(0.000223066121 2.950613623e-06 0)
(0.0002236150148 2.830815037e-06 0)
(0.0002241694134 2.665373931e-06 0)
(0.000224727594 2.458410498e-06 0)
(0.0002252886433 2.214123334e-06 0)
(0.0002258523629 1.936678909e-06 0)
(0.0002264191663 1.630132866e-06 0)
(0.0002269899779 1.298374811e-06 0)
(0.0002275661239 9.451062222e-07 0)
(0.0002281492469 5.73834261e-07 0)
(0.0002287412338 1.878465266e-07 0)
(0.0002293440828 -2.097464273e-07 0)
(0.0002299598508 -6.159958406e-07 0)
(0.0002305906631 -1.028080832e-06 0)
(0.0002312386156 -1.443263461e-06 0)
(0.0002319056962 -1.858875125e-06 0)
(0.0002325937707 -2.272289644e-06 0)
(0.0002333045631 -2.680879579e-06 0)
(0.0002340396195 -3.081983263e-06 0)
(0.0002348002761 -3.472881838e-06 0)
(0.0002355876314 -3.850781252e-06 0)
(0.0002364025191 -4.212798299e-06 0)
(0.0002372454823 -4.555952212e-06 0)
(0.0002381167466 -4.877162457e-06 0)
(0.000239016194 -5.173253274e-06 0)
(0.000239943336 -5.440965312e-06 0)
(0.0002408972882 -5.676974176e-06 0)
(0.000241876746 -5.877916859e-06 0)
(0.0002428799643 -6.040426088e-06 0)
(0.0002439047397 -6.161171872e-06 0)
(0.0002449484006 -6.236909676e-06 0)
(0.0002460078022 -6.264534309e-06 0)
(0.0002470793309 -6.241138143e-06 0)
(0.0002481589173 -6.164071998e-06 0)
(0.0002492420595 -6.031006869e-06 0)
(0.0002503238574 -5.839994154e-06 0)
(0.0002513990574 -5.58952177e-06 0)
(0.0002524621062 -5.27856384e-06 0)
(0.0002186671085 1.947447807e-07 0)
(0.0002187232628 5.763495381e-07 0)
(0.0002188415849 9.409007249e-07 0)
(0.0002190230665 1.278854228e-06 0)
(0.0002192604136 1.582202905e-06 0)
(0.0002195467931 1.844779723e-06 0)
(0.0002198770262 2.061901331e-06 0)
(0.0002202460361 2.230178716e-06 0)
(0.0002206482847 2.347502615e-06 0)
(0.0002210782389 2.413000251e-06 0)
(0.0002215308681 2.426904634e-06 0)
(0.0002220018242 2.390377999e-06 0)
(0.0002224874592 2.305329963e-06 0)
(0.0002229848322 2.174245463e-06 0)
(0.0002234917212 2.000026964e-06 0)
(0.0002240066124 1.785854511e-06 0)
(0.0002245286583 1.535068298e-06 0)
(0.0002250576158 1.251074419e-06 0)
(0.0002255937694 9.372708316e-07 0)
(0.000226137862 5.970144315e-07 0)
(0.0002266910345 2.335587515e-07 0)
(0.0002272547079 -1.499427683e-07 0)
(0.0002278305173 -5.504369777e-07 0)
(0.0002284203042 -9.649716959e-07 0)
(0.0002290260313 -1.39065887e-06 0)
(0.0002296497004 -1.824682482e-06 0)
(0.0002302933081 -2.264285765e-06 0)
(0.0002309588182 -2.706724096e-06 0)
(0.0002316481307 -3.149228859e-06 0)
(0.0002323630384 -3.588984052e-06 0)
(0.0002331051858 -4.023102874e-06 0)
(0.0002338760372 -4.44860504e-06 0)
(0.0002346768458 -4.862397519e-06 0)
(0.0002355086191 -5.261259869e-06 0)
(0.0002363720841 -5.641835239e-06 0)
(0.0002372676519 -6.00062763e-06 0)
(0.0002381953811 -6.334006118e-06 0)
(0.0002391549409 -6.638217008e-06 0)
(0.0002401455748 -6.909404475e-06 0)
(0.0002411660656 -7.143640209e-06 0)
(0.0002422147038 -7.336962304e-06 0)
(0.0002432892604 -7.485423225e-06 0)
(0.0002443869668 -7.585146528e-06 0)
(0.0002455045027 -7.632391437e-06 0)
(0.0002466379949 -7.623623623e-06 0)
(0.0002477830268 -7.555589973e-06 0)
(0.0002489346621 -7.425394899e-06 0)
(0.0002500874818 -7.230575381e-06 0)
(0.0002512356355 -6.969171477e-06 0)
(0.0002523729055 -6.639789037e-06 0)
(0.0002186659871 1.59452942e-07 0)
(0.0002187133074 4.707310979e-07 0)
(0.0002188131366 7.666590453e-07 0)
(0.0002189666516 1.039344193e-06 0)
(0.0002191682328 1.282077889e-06 0)
(0.0002194127277 1.48953267e-06 0)
(0.0002196963674 1.657485472e-06 0)
(0.0002200154112 1.782700152e-06 0)
(0.0002203656539 1.862951745e-06 0)
(0.0002207428159 1.897018576e-06 0)
(0.0002211429618 1.884598401e-06 0)
(0.0002215626529 1.826185947e-06 0)
(0.0002219989687 1.722942587e-06 0)
(0.0002224495253 1.576567518e-06 0)
(0.0002229125015 1.389174687e-06 0)
(0.0002233866457 1.163180344e-06 0)
(0.0002238712542 9.012058781e-07 0)
(0.0002243661266 6.060271473e-07 0)
(0.0002248715405 2.804539758e-07 0)
(0.0002253881679 -7.267259285e-08 0)
(0.0002259170052 -4.505033663e-07 0)
(0.0002264593774 -8.502181102e-07 0)
(0.0002270168622 -1.269006835e-06 0)
(0.0002275912046 -1.704092384e-06 0)
(0.0002281842719 -2.152732067e-06 0)
(0.000228798022 -2.612192895e-06 0)
(0.000229434466 -3.079723249e-06 0)
(0.0002300956212 -3.552526824e-06 0)
(0.0002307834692 -4.027741995e-06 0)
(0.0002314999195 -4.502418815e-06 0)
(0.0002322467727 -4.973491996e-06 0)
(0.0002330256833 -5.437756371e-06 0)
(0.0002338381207 -5.891847115e-06 0)
(0.0002346853285 -6.332224015e-06 0)
(0.0002355682816 -6.755160616e-06 0)
(0.0002364876416 -7.156739773e-06 0)
(0.0002374437094 -7.532856822e-06 0)
(0.0002384363766 -7.879231519e-06 0)
(0.0002394650765 -8.19142978e-06 0)
(0.0002405287361 -8.464896108e-06 0)
(0.0002416257313 -8.694997378e-06 0)
(0.0002427538466 -8.877078239e-06 0)
(0.0002439102427 -9.006528016e-06 0)
(0.0002450914336 -9.07885831e-06 0)
(0.0002462932772 -9.089789493e-06 0)
(0.0002475109803 -9.035343315e-06 0)
(0.0002487391208 -8.911938388e-06 0)
(0.0002499716884 -8.716485005e-06 0)
(0.0002512021436 -8.44647501e-06 0)
(0.0002524234945 -8.100062001e-06 0)
(0.0002186650711 1.296558134e-07 0)
(0.0002187051813 3.81421029e-07 0)
(0.000218789904 6.189643544e-07 0)
(0.0002189204997 8.356146996e-07 0)
(0.0002190926007 1.025648137e-06 0)
(0.0002193022986 1.184408358e-06 0)
(0.0002195468677 1.308079379e-06 0)
(0.0002198235831 1.393606372e-06 0)
(0.0002201292856 1.438737337e-06 0)
(0.0002204607025 1.44203652e-06 0)
(0.0002208147985 1.402832964e-06 0)
(0.0002211889036 1.321135545e-06 0)
(0.0002215807338 1.19754012e-06 0)
(0.0002219884148 1.033135449e-06 0)
(0.0002224105147 8.294082733e-07 0)
(0.0002228460593 5.881587649e-07 0)
(0.000223294561 3.114152748e-07 0)
(0.0002237559255 1.353332074e-09 0)
(0.000224230425 -3.396952656e-07 0)
(0.0002247187585 -7.093366658e-07 0)
(0.0002252219539 -1.10510385e-06 0)
(0.0002257413002 -1.524488864e-06 0)
(0.0002262783192 -1.964967733e-06 0)
(0.0002268347287 -2.423992016e-06 0)
(0.0002274124096 -2.898974828e-06 0)
(0.0002280133639 -3.387276871e-06 0)
(0.0002286396716 -3.886193745e-06 0)
(0.0002292934525 -4.392936251e-06 0)
(0.0002299768311 -4.904604262e-06 0)
(0.0002306918999 -5.418159656e-06 0)
(0.0002314406813 -5.930399642e-06 0)
(0.0002322250858 -6.437931262e-06 0)
(0.0002330468692 -6.937148421e-06 0)
(0.0002339075855 -7.424212443e-06 0)
(0.0002348085358 -7.895037543e-06 0)
(0.0002357507132 -8.345282951e-06 0)
(0.000236734744 -8.770353222e-06 0)
(0.0002377608261 -9.165408289e-06 0)
(0.0002388286647 -9.525384842e-06 0)
(0.0002399374086 -9.845030622e-06 0)
(0.0002410855884 -1.011895298e-05 0)
(0.0002422710599 -1.034168249e-05 0)
(0.0002434909541 -1.050775178e-05 0)
(0.0002447416408 -1.061178877e-05 0)
(0.0002460187067 -1.06486227e-05 0)
(0.0002473169531 -1.061339956e-05 0)
(0.0002486304153 -1.050170278e-05 0)
(0.000249952406 -1.030967424e-05 0)
(0.0002512755836 -1.003413019e-05 0)
(0.0002525920458 -9.672665407e-06 0)
(0.0002186643088 1.043777485e-07 0)
(0.0002186984234 3.055403869e-07 0)
(0.0002187705753 4.931950239e-07 0)
(0.0002188820458 6.61580826e-07 0)
(0.0002190294249 8.057223159e-07 0)
(0.0002192097424 9.21493121e-07 0)
(0.0002194210509 1.00542109e-06 0)
(0.0002196613994 1.054629151e-06 0)
(0.0002199284469 1.066881958e-06 0)
(0.0002202197263 1.040610547e-06 0)
(0.0002205329361 9.748847535e-07 0)
(0.0002208660473 8.693571475e-07 0)
(0.0002212173262 7.241955449e-07 0)
(0.0002215853585 5.400095689e-07 0)
(0.0002219690877 3.177795432e-07 0)
(0.0002223678299 5.878758984e-08 0)
(0.0002227812431 -2.35436803e-07 0)
(0.0002232093972 -5.632001804e-07 0)
(0.0002236527367 -9.226142816e-07 0)
(0.0002241119916 -1.311673491e-06 0)
(0.0002245882014 -1.728292814e-06 0)
(0.00022508268 -2.170304093e-06 0)
(0.0002255969866 -2.635460978e-06 0)
(0.0002261328934 -3.121437432e-06 0)
(0.0002266923499 -3.62582586e-06 0)
(0.0002272774484 -4.146128887e-06 0)
(0.0002278903932 -4.67974234e-06 0)
(0.0002285334689 -5.223931927e-06 0)
(0.0002292090059 -5.775806378e-06 0)
(0.0002299193454 -6.332288916e-06 0)
(0.0002306668001 -6.890087536e-06 0)
(0.0002314536112 -7.445665083e-06 0)
(0.0002322819014 -7.99521088e-06 0)
(0.0002331536214 -8.534615443e-06 0)
(0.0002340704913 -9.059449896e-06 0)
(0.0002350339349 -9.56495205e-06 0)
(0.0002360450081 -1.004602122e-05 0)
(0.0002371043217 -1.04972239e-05 0)
(0.0002382119602 -1.09128126e-05 0)
(0.0002393673979 -1.128676036e-05 0)
(0.0002405694156 -1.161281318e-05 0)
(0.0002418160214 -1.188456212e-05 0)
(0.0002431043803 -1.209553549e-05 0)
(0.0002444307559 -1.223931077e-05 0)
(0.0002457904722 -1.230964456e-05 0)
(0.0002471778994 -1.230061738e-05 0)
(0.0002485864674 -1.220678754e-05 0)
(0.000250008711 -1.202334726e-05 0)
(0.0002514363494 -1.174627359e-05 0)
(0.0002528603995 -1.137246545e-05 0)
(0.0002186636629 8.288581639e-08 0)
(0.0002186927004 2.409236051e-07 0)
(0.0002187542006 3.858631924e-07 0)
(0.0002188494261 5.126255418e-07 0)
(0.0002189757144 6.168049039e-07 0)
(0.0002191308142 6.946885942e-07 0)