/*--------------------------------*- C++ -*----------------------------------*\
| =========                 |                                                 |
| \\      /  F ield         | foam-extend: Open Source CFD                    |
|  \\    /   O peration     | Version:     4.1                                |
|   \\  /    A nd           | Web:         http://www.foam-extend.org         |
|    \\/     M anipulation  |                                                 |
\*---------------------------------------------------------------------------*/
FoamFile
{
    version     2.0;
    format      ascii;
    class       volVectorField;
    location    "190000";
    object      vorticity;
}
// * * * * * * * * * * * * * * * * * * * * * * * * * * * * * * * * * * * * * //

dimensions      [0 0 -1 0 0 0 0];

internalField   nonuniform List<vector> 
15920
(
(0 -0 -0.008256225651)
(0 -0 -0.008404916681)
(0 -0 -0.008448398145)
(0 -0 -0.008322584745)
(0 -0 -0.008110839993)
(0 -0 -0.007871292461)
(0 -0 -0.007614939023)
(0 -0 -0.007343085861)
(0 -0 -0.007064299121)
(0 -0 -0.006789543598)
(0 -0 -0.006526494558)
(0 -0 -0.006279388745)
(0 -0 -0.006050632012)
(0 -0 -0.005841520621)
(0 -0 -0.005652333759)
(0 -0 -0.005482495878)
(0 -0 -0.005330871571)
(0 -0 -0.005196025477)
(0 -0 -0.005076391912)
(0 -0 -0.004970384135)
(0 -0 -0.004876469384)
(0 -0 -0.004793217284)
(0 -0 -0.004719325464)
(0 -0 -0.004653628947)
(0 -0 -0.00459509717)
(0 -0 -0.004542826577)
(0 -0 -0.004496030064)
(0 -0 -0.004454024264)
(0 -0 -0.00441621621)
(0 -0 -0.004382090357)
(0 -0 -0.004351196511)
(0 -0 -0.004323138958)
(0 -0 -0.004297566861)
(0 -0 -0.00427416591)
(0 -0 -0.004252651148)
(0 -0 -0.00423276089)
(0 -0 -0.004214251631)
(0 -0 -0.004196893879)
(0 -0 -0.004180468838)
(0 -0 -0.004164765888)
(0 -0 -0.004149580746)
(0 -0 -0.004134714211)
(0 -0 -0.004119971382)
(0 -0 -0.004105161285)
(0 -0 -0.004090096854)
(0 -0 -0.00407459523)
(0 -0 -0.004058478341)
(0 -0 -0.004041573708)
(0 -0 -0.004023715441)
(0 -0 -0.004004745381)
(0 -0 0.000354672517)
(0 -0 -9.03569635e-06)
(0 -0 -0.0003971565496)
(0 -0 -0.0007985858634)
(0 -0 -0.001196465304)
(0 -0 -0.001574494423)
(0 -0 -0.001923476383)
(0 -0 -0.002238305538)
(0 -0 -0.002514992576)
(0 -0 -0.002751301796)
(0 -0 -0.002947622864)
(0 -0 -0.003106480282)
(0 -0 -0.0032315327)
(0 -0 -0.003326902958)
(0 -0 -0.003396844833)
(0 -0 -0.003445510441)
(0 -0 -0.003476757662)
(0 -0 -0.003494030555)
(0 -0 -0.003500315578)
(0 -0 -0.003498145565)
(0 -0 -0.003489627589)
(0 -0 -0.003476483386)
(0 -0 -0.003460096281)
(0 -0 -0.003441560347)
(0 -0 -0.003421727905)
(0 -0 -0.003401252166)
(0 -0 -0.003380624547)
(0 -0 -0.003360206912)
(0 -0 -0.003340258861)
(0 -0 -0.003320960335)
(0 -0 -0.003302429979)
(0 -0 -0.003284739858)
(0 -0 -0.003267927085)
(0 -0 -0.003252002885)
(0 -0 -0.003236959588)
(0 -0 -0.00322277593)
(0 -0 -0.003209421013)
(0 -0 -0.003196857202)
(0 -0 -0.003185042171)
(0 -0 -0.003173930301)
(0 -0 -0.003163473576)
(0 -0 -0.003153622119)
(0 -0 -0.00314432446)
(0 -0 -0.003135527625)
(0 -0 -0.003127177102)
(0 -0 -0.003119216712)
(0 -0 -0.003111588436)
(0 -0 -0.003104232258)
(0 -0 -0.003097086019)
(0 -0 -0.003090085311)
(0 -0 0.0001747654394)
(0 -0 0.0002536427373)
(0 -0 0.0003173582356)
(0 -0 0.0003448697066)
(0 -0 0.0003304679974)
(0 -0 0.00027636604)
(0 -0 0.0001890665227)
(0 -0 7.650128525e-05)
(0 -0 -5.339289531e-05)
(0 -0 -0.0001933035003)
(0 -0 -0.0003369679766)
(0 -0 -0.00047941662)
(0 -0 -0.0006169832901)
(0 -0 -0.0007471598913)
(0 -0 -0.0008684039753)
(0 -0 -0.0009799407309)
(0 -0 -0.001081572507)
(0 -0 -0.001173508852)
(0 -0 -0.001256226887)
(0 -0 -0.001330363676)
(0 -0 -0.001396636877)
(0 -0 -0.001455788678)
(0 -0 -0.001508548465)
(0 -0 -0.001555608461)
(0 -0 -0.001597611134)
(0 -0 -0.001635143728)
(0 -0 -0.001668737009)
(0 -0 -0.001698866795)
(0 -0 -0.00172595719)
(0 -0 -0.001750384733)
(0 -0 -0.001772482914)
(0 -0 -0.001792546727)
(0 -0 -0.001810837023)
(0 -0 -0.001827584564)
(0 -0 -0.001842993711)
(0 -0 -0.001857245728)
(0 -0 -0.001870501702)
(0 -0 -0.001882905099)
(0 -0 -0.001894583969)
(0 -0 -0.001905652843)
(0 -0 -0.001916214322)
(0 -0 -0.001926360416)
(0 -0 -0.001936173628)
(0 -0 -0.001945727834)
(0 -0 -0.001955088963)
(0 -0 -0.001964315524)
(0 -0 -0.001973458983)
(0 -0 -0.001982564011)
(0 -0 -0.001991668626)
(0 -0 -0.00200080424)
(0 -0 0.0001481934996)
(0 -0 0.0001509386923)
(0 -0 0.0001616665992)
(0 -0 0.0001806356508)
(0 -0 0.0002052720466)
(0 -0 0.0002313789686)
(0 -0 0.0002544781309)
(0 -0 0.0002709868354)
(0 -0 0.0002786387763)
(0 -0 0.0002764310017)
(0 -0 0.0002644081371)
(0 -0 0.0002433792849)
(0 -0 0.0002146152957)
(0 -0 0.0001795883994)
(0 -0 0.0001397850108)
(0 -0 9.658626524e-05)
(0 -0 5.120221542e-05)
(0 -0 4.645445086e-06)
(0 -0 -4.226877476e-05)
(0 -0 -8.890664091e-05)
(0 -0 -0.0001347923393)
(0 -0 -0.000179582226)
(0 -0 -0.0002230399133)
(0 -0 -0.000265013631)
(0 -0 -0.0003054173192)
(0 -0 -0.0003442149647)
(0 -0 -0.0003814079066)
(0 -0 -0.0004170248779)
(0 -0 -0.0004511143207)
(0 -0 -0.0004837385248)
(0 -0 -0.0005149692098)
(0 -0 -0.0005448842318)
(0 -0 -0.0005735651527)
(0 -0 -0.0006010954594)
(0 -0 -0.0006275592707)
(0 -0 -0.0006530404066)
(0 -0 -0.0006776217198)
(0 -0 -0.0007013846169)
(0 -0 -0.0007244087135)
(0 -0 -0.0007467715791)
(0 -0 -0.0007685485341)
(0 -0 -0.0007898124773)
(0 -0 -0.0008106337278)
(0 -0 -0.0008310798683)
(0 -0 -0.0008512155783)
(0 -0 -0.0008711024351)
(0 -0 -0.0008907987207)
(0 -0 -0.000910359204)
(0 -0 -0.0009298348945)
(0 -0 -0.0009492727673)
(0 -0 0.0001044991342)
(0 -0 0.0001053334536)
(0 -0 0.0001064402941)
(0 -0 0.0001083479882)
(0 -0 0.0001118203127)
(0 -0 0.0001174876556)
(0 -0 0.0001255684463)
(0 -0 0.0001357982444)
(0 -0 0.0001475253873)
(0 -0 0.0001598717694)
(0 -0 0.0001719029912)
(0 -0 0.0001827723361)
(0 -0 0.0001918111694)
(0 -0 0.000198562614)
(0 -0 0.0002027747497)
(0 -0 0.0002043710264)
(0 -0 0.000203410798)
(0 -0 0.0002000489128)
(0 -0 0.0001944998026)
(0 -0 0.0001870086108)
(0 -0 0.0001778297311)
(0 -0 0.0001672119554)
(0 -0 0.000155388988)
(0 -0 0.0001425740465)
(0 -0 0.0001289573917)
(0 -0 0.0001147058083)
(0 -0 9.99633247e-05)
(0 -0 8.485265651e-05)
(0 -0 6.947700613e-05)
(0 -0 5.392197835e-05)
(0 -0 3.825746726e-05)
(0 -0 2.253943323e-05)
(0 -0 6.811530426e-06)
(0 -0 -8.893431099e-06)
(0 -0 -2.455217478e-05)
(0 -0 -4.014983965e-05)
(0 -0 -5.567894229e-05)
(0 -0 -7.113847799e-05)
(0 -0 -8.653313197e-05)
(0 -0 -0.0001018725811)
(0 -0 -0.0001171708663)
(0 -0 -0.0001324458192)
(0 -0 -0.0001477185325)
(0 -0 -0.0001630128644)
(0 -0 -0.000178354967)
(0 -0 -0.0001937728244)
(0 -0 -0.0002092958018)
(0 -0 -0.0002249541908)
(0 -0 -0.0002407787559)
(0 -0 -0.0002568002393)
(0 -0 8.109293744e-05)
(0 -0 8.127132634e-05)
(0 -0 8.15155388e-05)
(0 -0 8.178956819e-05)
(0 -0 8.21039092e-05)
(0 -0 8.254621907e-05)
(0 -0 8.327328783e-05)
(0 -0 8.44722481e-05)
(0 -0 8.630861682e-05)
(0 -0 8.888240489e-05)
(0 -0 9.220584404e-05)
(0 -0 9.620470248e-05)
(0 -0 0.0001007364331)
(0 -0 0.000105615852)
(0 -0 0.0001106410293)
(0 -0 0.0001156150861)
(0 -0 0.0001203617859)
(0 -0 0.000124734602)
(0 -0 0.0001286202206)
(0 -0 0.000131938014)
(0 -0 0.0001346369912)
(0 -0 0.0001366914376)
(0 -0 0.000138096121)
(0 -0 0.0001388616382)
(0 -0 0.0001390102352)
(0 -0 0.0001385722475)
(0 -0 0.0001375831794)
(0 -0 0.000136081378)
(0 -0 0.0001341062281)
(0 -0 0.0001316967783)
(0 -0 0.0001288907272)
(0 -0 0.0001257236609)
(0 -0 0.0001222285363)
(0 -0 0.0001184353023)
(0 -0 0.0001143708711)
(0 -0 0.0001100576922)
(0 -0 0.0001055160064)
(0 -0 0.0001007628828)
(0 -0 9.581201756e-05)
(0 -0 9.067373546e-05)
(0 -0 8.53550503e-05)
(0 -0 7.985975497e-05)
(0 -0 7.418852493e-05)
(0 -0 6.833902624e-05)
(0 -0 6.230602824e-05)
(0 -0 5.608152748e-05)
(0 -0 4.965489879e-05)
(0 -0 4.301305636e-05)
(0 -0 3.614049511e-05)
(0 -0 2.901982751e-05)
(0 -0 6.461174636e-05)
(0 -0 6.466341477e-05)
(0 -0 6.47601365e-05)
(0 -0 6.489998235e-05)
(0 -0 6.507118703e-05)
(0 -0 6.525732412e-05)
(0 -0 6.544411948e-05)
(0 -0 6.562981284e-05)
(0 -0 6.583146056e-05)
(0 -0 6.608306285e-05)
(0 -0 6.642795148e-05)
(0 -0 6.690965128e-05)
(0 -0 6.756387742e-05)
(0 -0 6.841299944e-05)
(0 -0 6.946357829e-05)
(0 -0 7.070681573e-05)
(0 -0 7.212107571e-05)
(0 -0 7.367542848e-05)
(0 -0 7.533336604e-05)
(0 -0 7.705615274e-05)
(0 -0 7.880553599e-05)
(0 -0 8.054572922e-05)
(0 -0 8.224470233e-05)
(0 -0 8.387488879e-05)
(0 -0 8.541344242e-05)
(0 -0 8.68421739e-05)
(0 -0 8.814727166e-05)
(0 -0 8.931889158e-05)
(0 -0 9.035067813e-05)
(0 -0 9.123922213e-05)
(0 -0 9.198372213e-05)
(0 -0 9.258462706e-05)
(0 -0 9.304415032e-05)
(0 -0 9.336610218e-05)
(0 -0 9.355505181e-05)
(0 -0 9.36171829e-05)
(0 -0 9.35576938e-05)
(0 -0 9.33815659e-05)
(0 -0 9.309355054e-05)
(0 -0 9.269803541e-05)
(0 -0 9.219888953e-05)
(0 -0 9.159931022e-05)
(0 -0 9.09016811e-05)
(0 -0 9.010744722e-05)
(0 -0 8.921700711e-05)
(0 -0 8.822961572e-05)
(0 -0 8.714328953e-05)
(0 -0 8.595475199e-05)
(0 -0 8.465944705e-05)
(0 -0 8.325091157e-05)
(0 -0 5.208258503e-05)
(0 -0 5.205964745e-05)
(0 -0 5.205704423e-05)
(0 -0 5.208151125e-05)
(0 -0 5.213294789e-05)
(0 -0 5.220889233e-05)
(0 -0 5.230403565e-05)
(0 -0 5.241108292e-05)
(0 -0 5.252275093e-05)
(0 -0 5.263362348e-05)
(0 -0 5.274141099e-05)
(0 -0 5.284758935e-05)
(0 -0 5.295729098e-05)
(0 -0 5.307841742e-05)
(0 -0 5.322027429e-05)
(0 -0 5.339216575e-05)
(0 -0 5.360224569e-05)
(0 -0 5.385673186e-05)
(0 -0 5.415948671e-05)
(0 -0 5.451192237e-05)
(0 -0 5.491315832e-05)
(0 -0 5.536034611e-05)
(0 -0 5.584908208e-05)
(0 -0 5.637384683e-05)
(0 -0 5.692842814e-05)
(0 -0 5.750630692e-05)
(0 -0 5.810096638e-05)
(0 -0 5.870618543e-05)
(0 -0 5.931606657e-05)
(0 -0 5.992514502e-05)
(0 -0 6.052870119e-05)
(0 -0 6.112349624e-05)
(0 -0 6.17067075e-05)
(0 -0 6.227573443e-05)
(0 -0 6.282828365e-05)
(0 -0 6.336379295e-05)
(0 -0 6.388103812e-05)
(0 -0 6.437895536e-05)
(0 -0 6.485686955e-05)
(0 -0 6.531450825e-05)
(0 -0 6.575195121e-05)
(0 -0 6.616956126e-05)
(0 -0 6.656790826e-05)
(0 -0 6.694769533e-05)
(0 -0 6.730969129e-05)
(0 -0 6.765466757e-05)
(0 -0 6.79833236e-05)
(0 -0 6.829621077e-05)
(0 -0 6.859386198e-05)
(0 -0 6.887653704e-05)
(0 -0 4.242701261e-05)
(0 -0 4.234341381e-05)
(0 -0 4.22617579e-05)
(0 -0 4.219202657e-05)
(0 -0 4.213613279e-05)
(0 -0 4.20947529e-05)
(0 -0 4.206767629e-05)
(0 -0 4.205387838e-05)
(0 -0 4.205181588e-05)
(0 -0 4.205964204e-05)
(0 -0 4.207535303e-05)
(0 -0 4.20969836e-05)
(0 -0 4.212286136e-05)
(0 -0 4.215184883e-05)
(0 -0 4.218351858e-05)
(0 -0 4.221824041e-05)
(0 -0 4.225716708e-05)
(0 -0 4.230211382e-05)
(0 -0 4.235535307e-05)
(0 -0 4.241936698e-05)
(0 -0 4.249660323e-05)
(0 -0 4.258926637e-05)
(0 -0 4.269916424e-05)
(0 -0 4.282762026e-05)
(0 -0 4.297543016e-05)
(0 -0 4.314293534e-05)
(0 -0 4.332986015e-05)
(0 -0 4.353557309e-05)
(0 -0 4.37594325e-05)
(0 -0 4.400074327e-05)
(0 -0 4.425822718e-05)
(0 -0 4.453121725e-05)
(0 -0 4.481879022e-05)
(0 -0 4.51195384e-05)
(0 -0 4.543210174e-05)
(0 -0 4.575400215e-05)
(0 -0 4.608400741e-05)
(0 -0 4.642124598e-05)
(0 -0 4.676497657e-05)
(0 -0 4.711454635e-05)
(0 -0 4.746939732e-05)
(0 -0 4.78290753e-05)
(0 -0 4.819323384e-05)
(0 -0 4.856163112e-05)
(0 -0 4.893412149e-05)
(0 -0 4.931064643e-05)
(0 -0 4.96912367e-05)
(0 -0 5.007600309e-05)
(0 -0 5.046499424e-05)
(0 -0 5.085853358e-05)
(0 -0 3.478412422e-05)
(0 -0 3.465557759e-05)
(0 -0 3.451623117e-05)
(0 -0 3.437851172e-05)
(0 -0 3.424530819e-05)
(0 -0 3.411815233e-05)
(0 -0 3.399797423e-05)
(0 -0 3.388524742e-05)
(0 -0 3.378026786e-05)
(0 -0 3.368334525e-05)
(0 -0 3.359483147e-05)
(0 -0 3.35150344e-05)
(0 -0 3.344410903e-05)
(0 -0 3.338201372e-05)
(0 -0 3.332856933e-05)
(0 -0 3.328359385e-05)
(0 -0 3.324704975e-05)
(0 -0 3.321914796e-05)
(0 -0 3.320038414e-05)
(0 -0 3.319151034e-05)
(0 -0 3.319346039e-05)
(0 -0 3.320725384e-05)
(0 -0 3.323388737e-05)
(0 -0 3.327429937e-05)
(0 -0 3.332911323e-05)
(0 -0 3.339877297e-05)
(0 -0 3.348384233e-05)
(0 -0 3.358468545e-05)
(0 -0 3.37014827e-05)
(0 -0 3.383441165e-05)
(0 -0 3.398340158e-05)
(0 -0 3.414736113e-05)
(0 -0 3.432523324e-05)
(0 -0 3.451624532e-05)
(0 -0 3.471962534e-05)
(0 -0 3.493452435e-05)
(0 -0 3.516005202e-05)
(0 -0 3.539531597e-05)
(0 -0 3.563944628e-05)
(0 -0 3.589161343e-05)
(0 -0 3.615104199e-05)
(0 -0 3.641702012e-05)
(0 -0 3.668890751e-05)
(0 -0 3.696614479e-05)
(0 -0 3.724826536e-05)
(0 -0 3.753490736e-05)
(0 -0 3.782582253e-05)
(0 -0 3.812087953e-05)
(0 -0 3.842006291e-05)
(0 -0 3.872349531e-05)
(0 -0 2.860720456e-05)
(0 -0 2.844215741e-05)
(0 -0 2.825689968e-05)
(0 -0 2.806596029e-05)
(0 -0 2.787302639e-05)
(0 -0 2.76802926e-05)
(0 -0 2.748945203e-05)
(0 -0 2.730181567e-05)
(0 -0 2.71185329e-05)
(0 -0 2.69407846e-05)
(0 -0 2.676984717e-05)
(0 -0 2.660701444e-05)
(0 -0 2.645345218e-05)
(0 -0 2.631009852e-05)
(0 -0 2.617767241e-05)
(0 -0 2.605676929e-05)
(0 -0 2.594797821e-05)
(0 -0 2.585196654e-05)
(0 -0 2.576950922e-05)
(0 -0 2.570146869e-05)
(0 -0 2.564873186e-05)
(0 -0 2.561217317e-05)
(0 -0 2.559243524e-05)
(0 -0 2.559001174e-05)
(0 -0 2.560547731e-05)
(0 -0 2.563916072e-05)
(0 -0 2.569132337e-05)
(0 -0 2.576207543e-05)
(0 -0 2.585112107e-05)
(0 -0 2.595781006e-05)
(0 -0 2.608156454e-05)
(0 -0 2.622169562e-05)
(0 -0 2.63773656e-05)
(0 -0 2.654760205e-05)
(0 -0 2.673132425e-05)
(0 -0 2.692737317e-05)
(0 -0 2.713454194e-05)
(0 -0 2.735160479e-05)
(0 -0 2.757734166e-05)
(0 -0 2.781055736e-05)
(0 -0 2.805009682e-05)
(0 -0 2.829485734e-05)
(0 -0 2.854379865e-05)
(0 -0 2.87959538e-05)
(0 -0 2.905044427e-05)
(0 -0 2.93064994e-05)
(0 -0 2.956347406e-05)
(0 -0 2.982085797e-05)
(0 -0 3.007827856e-05)
(0 -0 3.033550372e-05)
(0 -0 2.353860014e-05)
(0 -0 2.334165826e-05)
(0 -0 2.31170788e-05)
(0 -0 2.288130134e-05)
(0 -0 2.263870487e-05)
(0 -0 2.23920356e-05)
(0 -0 2.214359192e-05)
(0 -0 2.189533165e-05)
(0 -0 2.164905995e-05)
(0 -0 2.140661739e-05)
(0 -0 2.116994921e-05)
(0 -0 2.094101733e-05)
(0 -0 2.072163117e-05)
(0 -0 2.051332922e-05)
(0 -0 2.031738399e-05)
(0 -0 2.013490489e-05)
(0 -0 1.996696179e-05)
(0 -0 1.981466987e-05)
(0 -0 1.96792064e-05)
(0 -0 1.956180049e-05)
(0 -0 1.946357104e-05)
(0 -0 1.938547925e-05)
(0 -0 1.932850149e-05)
(0 -0 1.929334282e-05)
(0 -0 1.928056793e-05)
(0 -0 1.929053924e-05)
(0 -0 1.932311333e-05)
(0 -0 1.937790999e-05)
(0 -0 1.945449148e-05)
(0 -0 1.955227391e-05)
(0 -0 1.967049145e-05)
(0 -0 1.980818364e-05)
(0 -0 1.996420603e-05)
(0 -0 2.013725539e-05)
(0 -0 2.032590159e-05)
(0 -0 2.052862189e-05)
(0 -0 2.074383445e-05)
(0 -0 2.096992853e-05)
(0 -0 2.120528972e-05)
(0 -0 2.144832029e-05)
(0 -0 2.169745683e-05)
(0 -0 2.195118713e-05)
(0 -0 2.220806606e-05)
(0 -0 2.246672974e-05)
(0 -0 2.272590963e-05)
(0 -0 2.298444998e-05)
(0 -0 2.324132843e-05)
(0 -0 2.349567319e-05)
(0 -0 2.374677101e-05)
(0 -0 2.399406714e-05)
(0 -0 1.932777477e-05)
(0 -0 1.910170122e-05)
(0 -0 1.884178777e-05)
(0 -0 1.856626997e-05)
(0 -0 1.828015471e-05)
(0 -0 1.798666243e-05)
(0 -0 1.768858582e-05)
(0 -0 1.738839943e-05)
(0 -0 1.708843838e-05)
(0 -0 1.679109054e-05)
(0 -0 1.649886694e-05)
(0 -0 1.621429726e-05)
(0 -0 1.593973416e-05)
(0 -0 1.567721487e-05)
(0 -0 1.54284631e-05)
(0 -0 1.519500096e-05)
(0 -0 1.497828084e-05)
(0 -0 1.477978919e-05)
(0 -0 1.460101731e-05)
(0 -0 1.444339825e-05)
(0 -0 1.430844296e-05)
(0 -0 1.419749609e-05)
(0 -0 1.411170772e-05)
(0 -0 1.405201559e-05)
(0 -0 1.401880757e-05)
(0 -0 1.401214923e-05)
(0 -0 1.40319524e-05)
(0 -0 1.407792166e-05)
(0 -0 1.414953108e-05)
(0 -0 1.424602234e-05)
(0 -0 1.436641051e-05)
(0 -0 1.450948915e-05)
(0 -0 1.467384253e-05)
(0 -0 1.485786999e-05)
(0 -0 1.505982007e-05)
(0 -0 1.527782904e-05)
(0 -0 1.550995857e-05)
(0 -0 1.575422989e-05)
(0 -0 1.600865323e-05)
(0 -0 1.627125214e-05)
(0 -0 1.654008367e-05)
(0 -0 1.681325718e-05)
(0 -0 1.708895366e-05)
(0 -0 1.73654449e-05)
(0 -0 1.764111122e-05)
(0 -0 1.791445875e-05)
(0 -0 1.818413849e-05)
(0 -0 1.844896558e-05)
(0 -0 1.870793345e-05)
(0 -0 1.896022002e-05)
(0 -0 1.579534833e-05)
(0 -0 1.554178436e-05)
(0 -0 1.524894591e-05)
(0 -0 1.493680757e-05)
(0 -0 1.461096938e-05)
(0 -0 1.427507911e-05)
(0 -0 1.393235698e-05)
(0 -0 1.358571614e-05)
(0 -0 1.323794258e-05)
(0 -0 1.289189511e-05)
(0 -0 1.255057734e-05)
(0 -0 1.221701748e-05)
(0 -0 1.189404843e-05)
(0 -0 1.158415119e-05)
(0 -0 1.128945062e-05)
(0 -0 1.101184201e-05)
(0 -0 1.075311664e-05)
(0 -0 1.051500943e-05)
(0 -0 1.029939347e-05)
(0 -0 1.010813626e-05)
(0 -0 9.942974878e-06)
(0 -0 9.805566949e-06)
(0 -0 9.697104499e-06)
(0 -0 9.6183783e-06)
(0 -0 9.569919927e-06)
(0 -0 9.551950068e-06)
(0 -0 9.564382559e-06)
(0 -0 9.606844804e-06)
(0 -0 9.678693527e-06)
(0 -0 9.779020248e-06)
(0 -0 9.90665079e-06)
(0 -0 1.006014989e-05)
(0 -0 1.023783993e-05)
(0 -0 1.043783338e-05)
(0 -0 1.065807247e-05)
(0 -0 1.089636992e-05)
(0 -0 1.115044743e-05)
(0 -0 1.141797161e-05)
(0 -0 1.169658799e-05)
(0 -0 1.198395197e-05)
(0 -0 1.227775489e-05)
(0 -0 1.257574587e-05)
(0 -0 1.287575229e-05)
(0 -0 1.317570071e-05)
(0 -0 1.347363788e-05)
(0 -0 1.376775163e-05)
(0 -0 1.405639353e-05)
(0 -0 1.433810121e-05)
(0 -0 1.461161315e-05)
(0 -0 1.487587186e-05)
(0 -0 1.281048704e-05)
(0 -0 1.253039356e-05)
(0 -0 1.220606794e-05)
(0 -0 1.185921055e-05)
(0 -0 1.149600003e-05)
(0 -0 1.112048614e-05)
(0 -0 1.073627893e-05)
(0 -0 1.034668514e-05)
(0 -0 9.954893407e-06)
(0 -0 9.564181426e-06)
(0 -0 9.177990101e-06)
(0 -0 8.799791738e-06)
(0 -0 8.432847613e-06)
(0 -0 8.08004024e-06)
(0 -0 7.743859916e-06)
(0 -0 7.42649023e-06)
(0 -0 7.130086187e-06)
(0 -0 6.856825622e-06)
(0 -0 6.608825054e-06)
(0 -0 6.388311149e-06)
(0 -0 6.197272671e-06)
(0 -0 6.037351695e-06)
(0 -0 5.909934375e-06)
(0 -0 5.816046308e-06)
(0 -0 5.75631969e-06)
(0 -0 5.730999421e-06)
(0 -0 5.739969852e-06)
(0 -0 5.782784274e-06)
(0 -0 5.858682403e-06)
(0 -0 5.966597569e-06)
(0 -0 6.10516283e-06)
(0 -0 6.272723227e-06)
(0 -0 6.46735829e-06)
(0 -0 6.686914356e-06)
(0 -0 6.929042871e-06)
(0 -0 7.191240875e-06)
(0 -0 7.470891903e-06)
(0 -0 7.765307294e-06)
(0 -0 8.071767546e-06)
(0 -0 8.387561277e-06)
(0 -0 8.710018103e-06)
(0 -0 9.036533885e-06)
(0 -0 9.364591532e-06)
(0 -0 9.691782408e-06)
(0 -0 1.001582999e-05)
(0 -0 1.033461455e-05)
(0 -0 1.064619992e-05)
(0 -0 1.094886167e-05)
(0 -0 1.124110629e-05)
(0 -0 1.152166932e-05)
(0 -0 1.027611858e-05)
(0 -0 9.970049113e-06)
(0 -0 9.615078128e-06)
(0 -0 9.234653347e-06)
(0 -0 8.835532948e-06)
(0 -0 8.422157729e-06)
(0 -0 7.998502861e-06)
(0 -0 7.568231381e-06)
(0 -0 7.134886472e-06)
(0 -0 6.702107748e-06)
(0 -0 6.273712186e-06)
(0 -0 5.853565488e-06)
(0 -0 5.445332152e-06)
(0 -0 5.05227102e-06)
(0 -0 4.67729882e-06)
(0 -0 4.323082726e-06)
(0 -0 3.992060956e-06)
(0 -0 3.686754744e-06)
(0 -0 3.409635096e-06)
(0 -0 3.162978283e-06)
(0 -0 2.948958144e-06)
(0 -0 2.769504283e-06)
(0 -0 2.626196897e-06)
(0 -0 2.520195075e-06)
(0 -0 2.452206466e-06)
(0 -0 2.422495346e-06)
(0 -0 2.430911679e-06)
(0 -0 2.476924896e-06)
(0 -0 2.559650998e-06)
(0 -0 2.67787039e-06)
(0 -0 2.830041257e-06)
(0 -0 3.014314118e-06)
(0 -0 3.228551071e-06)
(0 -0 3.470351396e-06)
(0 -0 3.737084483e-06)
(0 -0 4.025930655e-06)
(0 -0 4.333928937e-06)
(0 -0 4.658028743e-06)
(0 -0 4.995141442e-06)
(0 -0 5.34218762e-06)
(0 -0 5.696135853e-06)
(0 -0 6.054030339e-06)
(0 -0 6.413010585e-06)
(0 -0 6.770332462e-06)
(0 -0 7.123397518e-06)
(0 -0 7.469786793e-06)
(0 -0 7.807290823e-06)
(0 -0 8.133933843e-06)
(0 -0 8.447991392e-06)
(0 -0 8.74799351e-06)
(0 -0 8.119296701e-06)
(0 -0 7.787556061e-06)
(0 -0 7.40242556e-06)
(0 -0 6.989145195e-06)
(0 -0 6.555057356e-06)
(0 -0 6.10496577e-06)
(0 -0 5.643148187e-06)
(0 -0 5.173543862e-06)
(0 -0 4.699984907e-06)
(0 -0 4.226449324e-06)
(0 -0 3.757148535e-06)
(0 -0 3.296368188e-06)
(0 -0 2.848257857e-06)
(0 -0 2.416644097e-06)
(0 -0 2.004893384e-06)
(0 -0 1.616129844e-06)
(0 -0 1.253271669e-06)
(0 -0 9.189401504e-07)
(0 -0 6.156462656e-07)
(0 -0 3.458054268e-07)
(0 -0 1.117045761e-07)
(0 -0 -8.4576462e-08)
(0 -0 -2.412821447e-07)
(0 -0 -3.57089165e-07)
(0 -0 -4.311699505e-07)
(0 -0 -4.63202683e-07)
(0 -0 -4.533421039e-07)
(0 -0 -4.021751865e-07)
(0 -0 -3.106813785e-07)
(0 -0 -1.802056489e-07)
(0 -0 -1.244248951e-08)
(0 -0 1.905755424e-07)
(0 -0 4.264915161e-07)
(0 -0 6.926458031e-07)
(0 -0 9.861101279e-07)
(0 -0 1.303735811e-06)
(0 -0 1.642213322e-06)
(0 -0 1.998135512e-06)
(0 -0 2.368056066e-06)
(0 -0 2.748538454e-06)
(0 -0 3.136194824e-06)
(0 -0 3.527715833e-06)
(0 -0 3.919893644e-06)
(0 -0 4.30964557e-06)
(0 -0 4.694047986e-06)
(0 -0 5.070379425e-06)
(0 -0 5.436158058e-06)
(0 -0 5.789162983e-06)
(0 -0 6.127443626e-06)
(0 -0 6.449322372e-06)
(0 -0 6.284647204e-06)
(0 -0 5.927409269e-06)
(0 -0 5.512439514e-06)
(0 -0 5.066786252e-06)
(0 -0 4.598298398e-06)
(0 -0 4.1119968e-06)
(0 -0 3.612321435e-06)
(0 -0 3.103465105e-06)
(0 -0 2.589731086e-06)
(0 -0 2.075799404e-06)
(0 -0 1.566700064e-06)
(0 -0 1.067428998e-06)
(0 -0 5.824467657e-07)
(0 -0 1.15619773e-07)
(0 -0 -3.296060076e-07)
(0 -0 -7.50092782e-07)
(0 -0 -1.142799037e-06)
(0 -0 -1.504742614e-06)
(0 -0 -1.833044908e-06)
(0 -0 -2.124966452e-06)
(0 -0 -2.377953648e-06)
(0 -0 -2.589718257e-06)
(0 -0 -2.75834489e-06)
(0 -0 -2.882392753e-06)
(0 -0 -2.960957073e-06)
(0 -0 -2.993677907e-06)
(0 -0 -2.980709653e-06)
(0 -0 -2.92267634e-06)
(0 -0 -2.820633439e-06)
(0 -0 -2.676044625e-06)
(0 -0 -2.490770138e-06)
(0 -0 -2.267056809e-06)
(0 -0 -2.007519776e-06)
(0 -0 -1.715110462e-06)
(0 -0 -1.393070308e-06)
(0 -0 -1.044872686e-06)
(0 -0 -6.741573508e-07)
(0 -0 -2.846643556e-07)
(0 -0 1.198242377e-07)
(0 -0 5.35529756e-07)
(0 -0 9.587120505e-07)
(0 -0 1.385702052e-06)
(0 -0 1.812936153e-06)
(0 -0 2.23699191e-06)
(0 -0 2.65462621e-06)
(0 -0 3.062817123e-06)
(0 -0 3.45880259e-06)
(0 -0 3.840106523e-06)
(0 -0 4.204551934e-06)
(0 -0 4.550263482e-06)
(0 -0 4.729801126e-06)
(0 -0 4.347243206e-06)
(0 -0 3.902679685e-06)
(0 -0 3.424689528e-06)
(0 -0 2.921339927e-06)
(0 -0 2.397973574e-06)
(0 -0 1.859836113e-06)
(0 -0 1.312181243e-06)
(0 -0 7.601611596e-07)
(0 -0 2.08825046e-07)
(0 -0 -3.368582626e-07)
(0 -0 -8.720082724e-07)
(0 -0 -1.392003274e-06)
(0 -0 -1.892743636e-06)
(0 -0 -2.370605064e-06)
(0 -0 -2.822213048e-06)
(0 -0 -3.244253077e-06)
(0 -0 -3.633391748e-06)
(0 -0 -3.986319198e-06)
(0 -0 -4.299856848e-06)
(0 -0 -4.571081371e-06)
(0 -0 -4.797445595e-06)
(0 -0 -4.976882023e-06)
(0 -0 -5.107874449e-06)
(0 -0 -5.189488131e-06)
(0 -0 -5.221359924e-06)
(0 -0 -5.203663113e-06)
(0 -0 -5.137067584e-06)
(0 -0 -5.022710984e-06)
(0 -0 -4.862185161e-06)
(0 -0 -4.657530584e-06)
(0 -0 -4.411225443e-06)
(0 -0 -4.126158493e-06)
(0 -0 -3.805583049e-06)
(0 -0 -3.453057346e-06)
(0 -0 -3.072378916e-06)
(0 -0 -2.667518239e-06)
(0 -0 -2.242554571e-06)
(0 -0 -1.801617798e-06)
(0 -0 -1.348840961e-06)
(0 -0 -8.883229524e-07)
(0 -0 -4.240929168e-07)
(0 -0 3.993179488e-08)
(0 -0 4.999917798e-07)
(0 -0 9.525293939e-07)
(0 -0 1.394229788e-06)
(0 -0 1.822059409e-06)
(0 -0 2.233295762e-06)
(0 -0 2.625542308e-06)
(0 -0 2.996727737e-06)
(0 -0 3.422166471e-06)
(0 -0 3.014336944e-06)
(0 -0 2.539506743e-06)
(0 -0 2.027756637e-06)
(0 -0 1.488464169e-06)
(0 -0 9.286142465e-07)
(0 -0 3.545081614e-07)
(0 -0 -2.285419936e-07)
(0 -0 -8.159196656e-07)
(0 -0 -1.40306352e-06)
(0 -0 -1.985039218e-06)
(0 -0 -2.556635089e-06)
(0 -0 -3.112703795e-06)
(0 -0 -3.648469794e-06)
(0 -0 -4.159659092e-06)
(0 -0 -4.642413586e-06)
(0 -0 -5.093109582e-06)
(0 -0 -5.508210622e-06)
(0 -0 -5.884224058e-06)
(0 -0 -6.217763873e-06)
(0 -0 -6.505680837e-06)
(0 -0 -6.745213068e-06)
(0 -0 -6.934117079e-06)
(0 -0 -7.070752915e-06)
(0 -0 -7.154114231e-06)
(0 -0 -7.183811134e-06)
(0 -0 -7.160027498e-06)
(0 -0 -7.083478095e-06)
(0 -0 -6.955382152e-06)
(0 -0 -6.777454901e-06)
(0 -0 -6.551905597e-06)
(0 -0 -6.281426101e-06)
(0 -0 -5.96915936e-06)
(0 -0 -5.618646726e-06)
(0 -0 -5.233760871e-06)
(0 -0 -4.818633831e-06)
(0 -0 -4.377587467e-06)
(0 -0 -3.915068816e-06)
(0 -0 -3.43558993e-06)
(0 -0 -2.943672777e-06)
(0 -0 -2.443800991e-06)
(0 -0 -1.940376402e-06)
(0 -0 -1.437674042e-06)
(0 -0 -9.397941251e-07)
(0 -0 -4.506155008e-07)
(0 -0 2.624942122e-08)
(0 -0 4.875004107e-07)
(0 -0 9.301861048e-07)
(0 -0 1.351715508e-06)
(0 -0 1.749841721e-06)
(0 -0 2.336129228e-06)
(0 -0 1.901644852e-06)
(0 -0 1.394825002e-06)
(0 -0 8.494597001e-07)
(0 -0 2.769828538e-07)
(0 -0 -3.156107925e-07)
(0 -0 -9.231958539e-07)
(0 -0 -1.541411453e-06)
(0 -0 -2.165657679e-06)
(0 -0 -2.790645243e-06)
(0 -0 -3.410486707e-06)
(0 -0 -4.019131306e-06)
(0 -0 -4.610862647e-06)
(0 -0 -5.180577434e-06)
(0 -0 -5.723776597e-06)
(0 -0 -6.23638122e-06)
(0 -0 -6.714525597e-06)
(0 -0 -7.154426899e-06)
(0 -0 -7.552357784e-06)
(0 -0 -7.904709442e-06)
(0 -0 -8.208119629e-06)
(0 -0 -8.459628241e-06)
(0 -0 -8.656820941e-06)
(0 -0 -8.797927432e-06)
(0 -0 -8.881857813e-06)
(0 -0 -8.908184151e-06)
(0 -0 -8.877093215e-06)
(0 -0 -8.789340599e-06)
(0 -0 -8.646224974e-06)
(0 -0 -8.449581844e-06)
(0 -0 -8.201781845e-06)
(0 -0 -7.905717077e-06)
(0 -0 -7.564766981e-06)
(0 -0 -7.182744152e-06)
(0 -0 -6.763825538e-06)
(0 -0 -6.312476635e-06)
(0 -0 -5.833376765e-06)
(0 -0 -5.331350854e-06)
(0 -0 -4.811306934e-06)
(0 -0 -4.278175491e-06)
(0 -0 -3.736850745e-06)
(0 -0 -3.192136974e-06)
(0 -0 -2.648697549e-06)
(0 -0 -2.111001134e-06)
(0 -0 -1.583266749e-06)
(0 -0 -1.069412778e-06)
(0 -0 -5.730106198e-07)
(0 -0 -9.724783489e-08)
(0 -0 3.550867536e-07)
(0 -0 7.815869141e-07)
(0 -0 1.450072946e-06)
(0 -0 9.87467024e-07)
(0 -0 4.503533564e-07)
(0 -0 -1.24645771e-07)
(0 -0 -7.27539436e-07)
(0 -0 -1.353198366e-06)
(0 -0 -1.996716422e-06)
(0 -0 -2.652608001e-06)
(0 -0 -3.31494446e-06)
(0 -0 -3.977557132e-06)
(0 -0 -4.634143519e-06)
(0 -0 -5.2784481e-06)
(0 -0 -5.904554976e-06)
(0 -0 -6.507110205e-06)
(0 -0 -7.081333369e-06)
(0 -0 -7.622860258e-06)
(0 -0 -8.127548725e-06)
(0 -0 -8.591352035e-06)
(0 -0 -9.010292565e-06)
(0 -0 -9.380525089e-06)
(0 -0 -9.698466068e-06)
(0 -0 -9.960955416e-06)
(0 -0 -1.016540996e-05)
(0 -0 -1.030993021e-05)
(0 -0 -1.039334034e-05)
(0 -0 -1.041516928e-05)
(0 -0 -1.037560166e-05)
(0 -0 -1.027543089e-05)
(0 -0 -1.011603368e-05)
(0 -0 -9.899364272e-06)
(0 -0 -9.627951864e-06)
(0 -0 -9.304884892e-06)
(0 -0 -8.933774523e-06)
(0 -0 -8.51869898e-06)
(0 -0 -8.064133965e-06)
(0 -0 -7.574875011e-06)
(0 -0 -7.055958351e-06)
(0 -0 -6.512587e-06)
(0 -0 -5.950064182e-06)
(0 -0 -5.373729895e-06)
(0 -0 -4.788897562e-06)
(0 -0 -4.200793485e-06)
(0 -0 -3.614498727e-06)
(0 -0 -3.034885125e-06)
(0 -0 -2.466544231e-06)
(0 -0 -1.913722789e-06)
(0 -0 -1.380277385e-06)
(0 -0 -8.696472661e-07)
(0 -0 -3.848373991e-07)
(0 -0 7.158322737e-08)
(0 -0 7.458789022e-07)
(0 -0 2.581574032e-07)
(0 -0 -3.048596059e-07)
(0 -0 -9.086402462e-07)
(0 -0 -1.544565237e-06)
(0 -0 -2.206129765e-06)
(0 -0 -2.886563974e-06)
(0 -0 -3.579365177e-06)
(0 -0 -4.27832455e-06)
(0 -0 -4.977192001e-06)
(0 -0 -5.669478617e-06)
(0 -0 -6.348624758e-06)
(0 -0 -7.008371823e-06)
(0 -0 -7.643035028e-06)
(0 -0 -8.247526368e-06)
(0 -0 -8.817192738e-06)
(0 -0 -9.34761785e-06)
(0 -0 -9.834493108e-06)
(0 -0 -1.027358961e-05)
(0 -0 -1.066082273e-05)
(0 -0 -1.09923855e-05)
(0 -0 -1.126491787e-05)
(0 -0 -1.147566826e-05)
(0 -0 -1.162260615e-05)
(0 -0 -1.170446502e-05)
(0 -0 -1.172072464e-05)
(0 -0 -1.167156232e-05)
(0 -0 -1.155780542e-05)
(0 -0 -1.138090451e-05)
(0 -0 -1.114292633e-05)
(0 -0 -1.084655164e-05)
(0 -0 -1.049506049e-05)
(0 -0 -1.009229475e-05)
(0 -0 -9.642598884e-06)
(0 -0 -9.150746515e-06)
(0 -0 -8.621861114e-06)
(0 -0 -8.061335236e-06)
(0 -0 -7.474751938e-06)
(0 -0 -6.867812329e-06)
(0 -0 -6.246269177e-06)
(0 -0 -5.615861749e-06)
(0 -0 -4.98224968e-06)
(0 -0 -4.350946173e-06)
(0 -0 -3.72724562e-06)
(0 -0 -3.116141527e-06)
(0 -0 -2.522246159e-06)
(0 -0 -1.949733833e-06)
(0 -0 -1.40230976e-06)
(0 -0 -8.831929539e-07)
(0 -0 -3.95118536e-07)
(0 -0 2.135341521e-07)
(0 -0 -2.951286808e-07)
(0 -0 -8.847353893e-07)
(0 -0 -1.520631712e-06)
(0 -0 -2.191104132e-06)
(0 -0 -2.887792493e-06)
(0 -0 -3.603552025e-06)
(0 -0 -4.331935487e-06)
(0 -0 -5.066627014e-06)
(0 -0 -5.801079758e-06)
(0 -0 -6.528437604e-06)
(0 -0 -7.241769881e-06)
(0 -0 -7.934464169e-06)
(0 -0 -8.600505721e-06)
(0 -0 -9.234502163e-06)
(0 -0 -9.83151629e-06)
(0 -0 -1.038686226e-05)
(0 -0 -1.089597268e-05)
(0 -0 -1.135436942e-05)
(0 -0 -1.175772982e-05)
(0 -0 -1.210202462e-05)
(0 -0 -1.238369389e-05)
(0 -0 -1.259981541e-05)
(0 -0 -1.274822289e-05)
(0 -0 -1.282755344e-05)
(0 -0 -1.283723233e-05)
(0 -0 -1.277742442e-05)
(0 -0 -1.264898497e-05)
(0 -0 -1.245343024e-05)
(0 -0 -1.219292962e-05)
(0 -0 -1.187030536e-05)
(0 -0 -1.148902093e-05)
(0 -0 -1.10531438e-05)
(0 -0 -1.05672819e-05)
(0 -0 -1.003650452e-05)
(0 -0 -9.466260248e-06)
(0 -0 -8.86229627e-06)
(0 -0 -8.230577621e-06)
(0 -0 -7.577208719e-06)
(0 -0 -6.908362553e-06)
(0 -0 -6.230214355e-06)
(0 -0 -5.548870962e-06)
(0 -0 -4.870293813e-06)
(0 -0 -4.200219638e-06)
(0 -0 -3.544073295e-06)
(0 -0 -2.906879983e-06)
(0 -0 -2.29317668e-06)
(0 -0 -1.70693658e-06)
(0 -0 -1.151560438e-06)
(0 -0 -6.299520476e-07)
(0 -0 -1.524670936e-07)
(0 -0 -6.842662342e-07)
(0 -0 -1.304282076e-06)
(0 -0 -1.972691072e-06)
(0 -0 -2.676185654e-06)
(0 -0 -3.40654463e-06)
(0 -0 -4.156724099e-06)
(0 -0 -4.920049524e-06)
(0 -0 -5.689857171e-06)
(0 -0 -6.459235713e-06)
(0 -0 -7.220961751e-06)
(0 -0 -7.967740049e-06)
(0 -0 -8.692609424e-06)
(0 -0 -9.389230709e-06)
(0 -0 -1.005191199e-05)
(0 -0 -1.067543637e-05)
(0 -0 -1.125485178e-05)
(0 -0 -1.178533462e-05)
(0 -0 -1.226216065e-05)
(0 -0 -1.268077249e-05)
(0 -0 -1.303692076e-05)
(0 -0 -1.332684491e-05)
(0 -0 -1.354744839e-05)
(0 -0 -1.369642459e-05)
(0 -0 -1.377231044e-05)
(0 -0 -1.377447283e-05)
(0 -0 -1.37030579e-05)
(0 -0 -1.355893883e-05)
(0 -0 -1.334368562e-05)
(0 -0 -1.305955892e-05)
(0 -0 -1.270951217e-05)
(0 -0 -1.229718101e-05)
(0 -0 -1.182684578e-05)
(0 -0 -1.130336639e-05)
(0 -0 -1.073210019e-05)
(0 -0 -1.011881612e-05)
(0 -0 -9.469611691e-06)
(0 -0 -8.790830952e-06)
(0 -0 -8.088983123e-06)
(0 -0 -7.370667726e-06)
(0 -0 -6.642505946e-06)
(0 -0 -5.911066297e-06)
(0 -0 -5.18278015e-06)
(0 -0 -4.463855724e-06)
(0 -0 -3.760186526e-06)
(0 -0 -3.077282964e-06)
(0 -0 -2.420091966e-06)
(0 -0 -1.792951616e-06)
(0 -0 -1.19959336e-06)
(0 -0 -6.428995244e-07)
(0 -0 -3.652659977e-07)
(0 -0 -9.231629757e-07)
(0 -0 -1.573122618e-06)
(0 -0 -2.272215699e-06)