0 0 	0 	0 	
0.020202 0.281587 	-0.000495385 	0 	
0.040404 0.561442 	-0.000975965 	0 	
0.0606061 0.742193 	-0.000921355 	0 	
0.0808081 0.835478 	-0.000415672 	0 	
0.10101 0.925269 	6.972e-05 	0 	
0.121212 0.956364 	0.000174238 	0 	
0.141414 0.987458 	0.000278756 	0 	
0.161616 1.00651 	0.000275016 	0 	
0.181818 1.01687 	0.000195527 	0 	
0.20202 1.0265 	0.000119415 	0 	
0.222222 1.02996 	7.64271e-05 	0 	
0.242424 1.03341 	3.34396e-05 	0 	
0.262626 1.03541 	1.3516e-05 	0 	
0.282828 1.03656 	6.99113e-06 	0 	
0.30303 1.03759 	1.57531e-06 	0 	
0.323232 1.03798 	1.82686e-06 	0 	
0.343434 1.03836 	2.07841e-06 	0 	
0.363636 1.03857 	1.95152e-06 	0 	
0.383838 1.0387 	1.64503e-06 	0 	
0.40404 1.03881 	1.32482e-06 	0 	
0.424242 1.03885 	9.72228e-07 	0 	
0.444444 1.03889 	6.19633e-07 	0 	
0.464646 1.03892 	4.44348e-07 	0 	
0.484848 1.03893 	3.34983e-07 	0 	
0.505051 1.03894 	2.49411e-07 	0 	
0.525253 1.03895 	2.31532e-07 	0 	
0.545455 1.03895 	2.13654e-07 	0 	
0.565657 1.03896 	2.00447e-07 	0 	
0.585859 1.03896 	1.88456e-07 	0 	
0.606061 1.03896 	1.75654e-07 	0 	
0.626263 1.03896 	1.61185e-07 	0 	
0.646465 1.03896 	1.46716e-07 	0 	
0.666667 1.03896 	1.32599e-07 	0 	
0.686869 1.03896 	1.18613e-07 	0 	
0.707071 1.03896 	1.04815e-07 	0 	
0.727273 1.03896 	9.14402e-08 	0 	
0.747475 1.03896 	7.80657e-08 	0 	
0.767677 1.03896 	6.46093e-08 	0 	
0.787879 1.03896 	5.11551e-08 	0 	
0.808081 1.03896 	3.75238e-08 	0 	
0.828283 1.03896 	2.36149e-08 	0 	
0.848485 1.03896 	9.70606e-09 	0 	
0.868687 1.03896 	-4.77356e-09 	0 	
0.888889 1.03896 	-1.93211e-08 	0 	
0.909091 1.03896 	-3.41631e-08 	0 	
0.929293 1.03896 	-4.94284e-08 	0 	
0.949495 1.03896 	-6.46937e-08 	0 	
0.969697 1.03896 	-8.04996e-08 	0 	
0.989899 1.03896 	-9.63485e-08 	0 	
1.0101 1.03896 	-1.12251e-07 	0 	
1.0303 1.03896 	-1.28249e-07 	0 	
1.05051 1.03896 	-1.44224e-07 	0 	
1.07071 1.03896 	-1.59685e-07 	0 	
1.09091 1.03896 	-1.75145e-07 	0 	
1.11111 1.03896 	-1.89886e-07 	0 	
1.13131 1.03896 	-2.04037e-07 	0 	
1.15152 1.03896 	-2.18048e-07 	0 	
1.17172 1.03896 	-2.30247e-07 	0 	
1.19192 1.03896 	-2.42447e-07 	0 	
1.21212 1.03896 	-2.5329e-07 	0 	
1.23232 1.03896 	-2.63221e-07 	0 	
1.25253 1.03896 	-2.72895e-07 	0 	
1.27273 1.03896 	-2.80796e-07 	0 	
1.29293 1.03896 	-2.88697e-07 	0 	
1.31313 1.03896 	-2.95826e-07 	0 	
1.33333 1.03896 	-3.02562e-07 	0 	
1.35354 1.03896 	-3.09118e-07 	0 	
1.37374 1.03896 	-3.149e-07 	0 	
1.39394 1.03896 	-3.20682e-07 	0 	
1.41414 1.03896 	-3.23975e-07 	0 	
1.43434 1.03896 	-3.26196e-07 	0 	
1.45455 1.03895 	-3.29443e-07 	0 	
1.47475 1.03895 	-3.36958e-07 	0 	
1.49495 1.03894 	-3.44472e-07 	0 	
1.51515 1.03893 	-4.19841e-07 	0 	
1.53535 1.03892 	-5.19107e-07 	0 	
1.55556 1.03889 	-6.84641e-07 	0 	
1.57576 1.03885 	-1.02844e-06 	0 	
1.59596 1.03881 	-1.37224e-06 	0 	
1.61616 1.0387 	-1.68528e-06 	0 	
1.63636 1.03857 	-1.98499e-06 	0 	
1.65657 1.03836 	-2.1058e-06 	0 	
1.67677 1.03798 	-1.84951e-06 	0 	
1.69697 1.03759 	-1.59323e-06 	0 	
1.71717 1.03656 	-7.00562e-06 	0 	
1.73737 1.03541 	-1.35273e-05 	0 	
1.75758 1.03341 	-3.34475e-05 	0 	
1.77778 1.02996 	-7.64314e-05 	0 	
1.79798 1.0265 	-0.000119415 	0 	
1.81818 1.01687 	-0.000195525 	0 	
1.83838 1.00651 	-0.000275011 	0 	
1.85859 0.987458 	-0.000278748 	0 	
1.87879 0.956364 	-0.000174227 	0 	
1.89899 0.925269 	-6.97058e-05 	0 	
1.91919 0.835478 	0.000415685 	0 	
1.93939 0.742193 	0.000921366 	0 	
1.9596 0.561442 	0.000975973 	0 	
1.9798 0.281587 	0.000495388 	0 	
2 4.61392e-15 	1.84304e-17 	0 	
