/*--------------------------------*- C++ -*----------------------------------*\
| =========                 |                                                 |
| \\      /  F ield         | foam-extend: Open Source CFD                    |
|  \\    /   O peration     | Version:     4.1                                |
|   \\  /    A nd           | Web:         http://www.foam-extend.org         |
|    \\/     M anipulation  |                                                 |
\*---------------------------------------------------------------------------*/
FoamFile
{
    version     2.0;
    format      ascii;
    class       volScalarField;
    location    "180000";
    object      p;
}
// * * * * * * * * * * * * * * * * * * * * * * * * * * * * * * * * * * * * * //

dimensions      [0 2 -2 0 0 0 0];

internalField   nonuniform List<scalar> 
15920
(
2.019458313e-08
1.737058337e-08
1.518218358e-08
1.40681109e-08
1.327531195e-08
1.245762785e-08
1.166250541e-08
1.096780538e-08
1.037696771e-08
9.868512636e-09
9.431644129e-09
9.063093792e-09
8.757955609e-09
8.508259551e-09
8.305073544e-09
8.139835856e-09
8.004650508e-09
7.892379937e-09
7.796790732e-09
7.712647915e-09
7.635701823e-09
7.562603031e-09
7.490788996e-09
7.418363201e-09
7.343975278e-09
7.266711784e-09
7.185998975e-09
7.101519229e-09
7.0131428e-09
6.920874016e-09
6.824809934e-09
6.725109332e-09
6.621969784e-09
6.515619997e-09
6.406300708e-09
6.294251343e-09
6.179714805e-09
6.062937561e-09
5.944169648e-09
5.823666277e-09
5.701689964e-09
5.57851327e-09
5.45442245e-09
5.329697008e-09
5.204630732e-09
5.079532205e-09
4.954718167e-09
4.830513135e-09
4.707247586e-09
4.585254923e-09
1.488618399e-08
1.453700369e-08
1.397239258e-08
1.344883097e-08
1.294359859e-08
1.237538154e-08
1.176969521e-08
1.118197672e-08
1.063807529e-08
1.014428366e-08
9.704637349e-09
9.322828819e-09
8.998614428e-09
8.727441145e-09
8.502363196e-09
8.315828433e-09
8.160491229e-09
8.029531771e-09
7.916873738e-09
7.817327992e-09
7.726621764e-09
7.641339524e-09
7.558825604e-09
7.477072882e-09
7.394595744e-09
7.310341442e-09
7.223602875e-09
7.133938086e-09
7.041103328e-09
6.944999886e-09
6.845632592e-09
6.743077633e-09
6.637456289e-09
6.528914832e-09
6.417643289e-09
6.303863007e-09
6.187795628e-09
6.069662302e-09
5.949689906e-09
5.828113388e-09
5.705176854e-09
5.581137441e-09
5.456275082e-09
5.330902322e-09
5.205307676e-09
5.079781643e-09
4.954637882e-09
4.8302049e-09
4.70681622e-09
4.584806428e-09
1.435617036e-08
1.419430479e-08
1.375499635e-08
1.319939949e-08
1.266438733e-08
1.215282387e-08
1.164518727e-08
1.115308882e-08
1.069377077e-08
1.027369548e-08
9.893319961e-09
9.55275421e-09
9.251683371e-09
8.988038714e-09
8.758373354e-09
8.558661453e-09
8.384724988e-09
8.232377836e-09
8.097556624e-09
7.976476216e-09
7.865746859e-09
7.762428098e-09
7.66403574e-09
7.56853078e-09
7.474307816e-09
7.380121489e-09
7.28502534e-09
7.188325313e-09
7.089536478e-09
6.988342052e-09
6.884556965e-09
6.778097678e-09
6.668958552e-09
6.557195847e-09
6.44291855e-09
6.326271786e-09
6.207421334e-09
6.086551093e-09
5.963864765e-09
5.839585694e-09
5.713956332e-09
5.587238991e-09
5.459716229e-09
5.331685355e-09
5.203446782e-09
5.075313769e-09
4.947618751e-09
4.820707022e-09
4.69492999e-09
4.570641533e-09
1.335823729e-08
1.321636459e-08
1.293468066e-08
1.257809138e-08
1.220676181e-08
1.183226736e-08
1.144838923e-08
1.106217592e-08
1.068822499e-08
1.033590059e-08
1.000856092e-08
9.707649488e-09
9.434098779e-09
9.187739545e-09
8.967137734e-09
8.770017137e-09
8.593672085e-09
8.435200968e-09
8.291656689e-09
8.160186625e-09
8.038148473e-09
7.92318102e-09
7.813234669e-09
7.706577073e-09
7.601780071e-09
7.497686232e-09
7.393375697e-09
7.288137228e-09
7.181438854e-09
7.072898276e-09
6.962255803e-09
6.849351356e-09
6.73410574e-09
6.616505569e-09
6.496591365e-09
6.374447906e-09
6.250196124e-09
6.123988082e-09
5.996004642e-09
5.866454016e-09
5.735570457e-09
5.603612891e-09
5.47086374e-09
5.337626984e-09
5.204223861e-09
5.070992426e-09
4.938286569e-09
4.806474246e-09
4.675934095e-09
4.547049723e-09
1.271398273e-08
1.264397557e-08
1.247455349e-08
1.222705741e-08
1.193951085e-08
1.163337345e-08
1.131540973e-08
1.099226546e-08
1.067363885e-08
1.036750482e-08
1.007815515e-08
9.807731214e-09
9.557486802e-09
9.32782207e-09
9.118134037e-09
8.927028824e-09
8.752658743e-09
8.59295575e-09
8.445765455e-09
8.30894892e-09
8.180469541e-09
8.058454589e-09
7.941228515e-09
7.827325616e-09
7.715489566e-09
7.604663743e-09
7.493975713e-09
7.382719175e-09
7.270335179e-09
7.156392934e-09
7.040571872e-09
6.922645967e-09
6.802470185e-09
6.679968938e-09
6.55512709e-09
6.427982415e-09
6.298618859e-09
6.167161386e-09
6.03377248e-09
5.898650249e-09
5.762027159e-09
5.624168108e-09
5.485368665e-09
5.345954357e-09
5.206274011e-09
5.066698435e-09
4.927617331e-09
4.789440894e-09
4.652591312e-09
4.517496345e-09
1.222038509e-08
1.217114881e-08
1.20479133e-08
1.186074064e-08
1.163582981e-08
1.139119823e-08
1.113426186e-08
1.086994897e-08
1.060467085e-08
1.03447053e-08
1.009436915e-08
9.85618753e-09
9.631682647e-09
9.421658895e-09
9.22618267e-09
9.044668096e-09
8.876078143e-09
8.719103036e-09
8.572276364e-09
8.434060686e-09
8.302922394e-09
8.17739229e-09
8.05610674e-09
7.937831561e-09
7.821473908e-09
7.706084896e-09
7.59085549e-09
7.475107918e-09
7.358285088e-09
7.239939548e-09
7.11972206e-09
6.997370804e-09
6.872701706e-09
6.745600136e-09
6.616014656e-09
6.483950696e-09
6.349464937e-09
6.212661932e-09
6.073691924e-09
5.932748975e-09
5.790068309e-09
5.645923698e-09
5.500627703e-09
5.354534834e-09
5.208011734e-09
5.061469229e-09
4.915332169e-09
4.770055771e-09
4.62611344e-09
4.483986493e-09
1.182938754e-08
1.179240696e-08
1.170098453e-08
1.156042328e-08
1.138689029e-08
1.119260529e-08
1.098387024e-08
1.07652701e-08
1.054202646e-08
1.031931721e-08
1.010111612e-08
9.890050275e-09
9.687830109e-09
9.495525726e-09
9.313614996e-09
9.142027724e-09
8.98026456e-09
8.827530761e-09
8.682839717e-09
8.545090391e-09
8.413132607e-09
8.285821756e-09
8.162059891e-09
8.040822929e-09
7.921177184e-09
7.802287775e-09
7.683421212e-09
7.563943864e-09
7.443317981e-09
7.321096353e-09
7.196916072e-09
7.070492163e-09
6.941611277e-09
6.810126115e-09
6.675954426e-09
6.539073068e-09
6.39951508e-09
6.257364102e-09
6.112754212e-09
5.965874276e-09
5.816962171e-09
5.666300161e-09
5.514214876e-09
5.361070399e-09
5.207291639e-09
5.053324356e-09
4.899656851e-09
4.746794003e-09
4.595258338e-09
4.445588741e-09
1.15166656e-08
1.148850784e-08
1.14186884e-08
1.130986823e-08
1.117251593e-08
1.101518423e-08
1.084310016e-08
1.066039799e-08
1.047136297e-08
1.028011683e-08
1.009000305e-08
9.903445258e-09
9.722144386e-09
9.547254698e-09
9.379443452e-09
9.218928448e-09
9.065554074e-09
8.918885998e-09
8.778293519e-09
8.643013985e-09
8.512206316e-09
8.384996796e-09
8.260515932e-09
8.137925582e-09
8.016437584e-09
7.89532591e-09
7.773933877e-09
7.651677557e-09
7.528046775e-09
7.402604076e-09
7.274982809e-09
7.144884911e-09
7.012076803e-09
6.876381585e-09
6.737701329e-09
6.595985892e-09
6.451250658e-09
6.303569663e-09
6.153068996e-09
5.999929488e-09
5.844390452e-09
5.686750172e-09
5.527360739e-09
5.366623562e-09
5.2049901e-09
5.042955899e-09
4.881057533e-09
4.719861422e-09
4.559958697e-09
4.401958841e-09
1.126367362e-08
1.124148829e-08
1.118637844e-08
1.109983517e-08
1.098920135e-08
1.086058732e-08
1.071796334e-08
1.056465059e-08
1.040405769e-08
1.023946094e-08
1.007363055e-08
9.908715726e-09
9.746323059e-09
9.587611017e-09
9.433337186e-09
9.28389112e-09
9.139345124e-09
8.999518725e-09
8.864040071e-09
8.732397763e-09
8.603984972e-09
8.478137957e-09
8.354168475e-09
8.231389484e-09
8.109134344e-09
7.986770831e-09
7.863710974e-09
7.73941758e-09
7.613409059e-09
7.485261673e-09
7.354609955e-09
7.221149101e-09
7.084641107e-09
6.944840645e-09
6.801685805e-09
6.655099393e-09
6.505066693e-09
6.35164131e-09
6.194945302e-09
6.035163172e-09
5.872542921e-09
5.707397586e-09
5.54010318e-09
5.371096695e-09
5.200874133e-09
5.029984308e-09
4.859024781e-09
4.68863682e-09
4.519495597e-09
4.352297115e-09
1.105763375e-08
1.103974638e-08
1.099531908e-08
1.092525254e-08
1.083490364e-08
1.072866101e-08
1.060941972e-08
1.047975446e-08
1.034238946e-08
1.019997225e-08
1.005479492e-08
9.908710476e-09
9.763169253e-09
9.619267393e-09
9.477775363e-09
9.339161933e-09
9.203628927e-09
9.07115539e-09
8.941542509e-09
8.814454182e-09
8.689452943e-09
8.566031822e-09
8.443641983e-09
8.321715563e-09
8.199683949e-09
8.076992093e-09
7.953109395e-09
7.82753743e-09
7.699816615e-09
7.569534852e-09
7.43633132e-09
7.299875105e-09
7.15990136e-09
7.016261099e-09
6.868742679e-09
6.717271264e-09
6.561826564e-09
6.402452698e-09
6.239264333e-09
6.072445996e-09
5.902253835e-09
5.729017745e-09
5.553141831e-09
5.375104018e-09
5.195453275e-09
5.014803019e-09
4.833824439e-09
4.653241017e-09
4.473821396e-09
4.296366276e-09
1.088942124e-08
1.087475487e-08
1.083832541e-08
1.07806829e-08
1.070585958e-08
1.061708049e-08
1.05164605e-08
1.040597524e-08
1.028778855e-08
1.016403069e-08
1.003657458e-08
9.906977958e-09
9.77650508e-09
9.646149086e-09
9.516643458e-09
9.388475899e-09
9.261911758e-09
9.13702432e-09
9.013726951e-09
8.891803649e-09
8.770937317e-09
8.650735371e-09
8.53075279e-09
8.41051183e-09
8.28951855e-09
8.167276775e-09
8.04329993e-09
7.917118722e-09
7.788288554e-09
7.656392306e-09
7.521077048e-09
7.382010373e-09
7.238896728e-09
7.091519357e-09
6.939697065e-09
6.783320296e-09
6.622346651e-09
6.456802982e-09
6.286791199e-09
6.112493059e-09
5.934173552e-09
5.75218284e-09
5.566956766e-09
5.379017151e-09
5.188971466e-09
4.997508462e-09
4.805388722e-09
4.613434397e-09
4.42252157e-09
4.23357064e-09
1.075220517e-08
1.074000773e-08
1.070970723e-08
1.06616421e-08
1.059893509e-08
1.052401236e-08
1.043842362e-08
1.034366629e-08
1.024144018e-08
1.013344811e-08
1.002121052e-08
9.906021057e-09
9.788959972e-09
9.670902099e-09
9.552516896e-09
9.434274171e-09
9.316459023e-09
9.199192496e-09
9.082454096e-09
8.966104176e-09
8.849905506e-09
8.73354363e-09
8.616645543e-09
8.498796724e-09
8.379555585e-09
8.258465829e-09
8.135067343e-09
8.008906047e-09
7.879550024e-09
7.746591317e-09
7.609621704e-09
7.468300432e-09
7.322324619e-09
7.171434686e-09
7.015425059e-09
6.85415383e-09
6.687548944e-09
6.515614033e-09
6.338435357e-09
6.156188304e-09
5.969143183e-09
5.777669627e-09
5.582238315e-09
5.383420704e-09
5.181888911e-09
4.978414153e-09
4.773859606e-09
4.569167497e-09
4.365345798e-09
4.163456216e-09
1.064075074e-08
1.06304882e-08
1.06049933e-08
1.056447265e-08
1.051139731e-08
1.044762577e-08
1.037429715e-08
1.029254031e-08
1.020368522e-08
1.010909006e-08
1.000998453e-08
9.907432963e-09
9.802342989e-09
9.695466488e-09
9.587393575e-09
9.478552532e-09
9.369218385e-09
9.25952657e-09
9.149488251e-09
9.039006428e-09
8.927891857e-09
8.815878734e-09
8.702639337e-09
8.587798277e-09
8.470945855e-09
8.351652319e-09
8.22946861e-09
8.10394814e-09
7.974642882e-09
7.841118472e-09
7.702959853e-09
7.559792193e-09
7.411274628e-09
7.257106809e-09
7.097042347e-09
6.930898332e-09
6.758564515e-09
6.58001273e-09
6.3953058e-09
6.204605775e-09
6.008182071e-09
5.806419237e-09
5.599822161e-09
5.389017066e-09
5.174750156e-09
4.957885996e-09
4.739403013e-09
4.520381921e-09
4.301989093e-09
4.085459416e-09
1.055095871e-08
1.054224391e-08
1.052059407e-08
1.048613111e-08
1.044084384e-08
1.038617836e-08
1.032297623e-08
1.025208756e-08
1.017455143e-08
1.009144836e-08
1.000376771e-08
9.912376827e-09
9.818027063e-09
9.721351341e-09
9.622855048e-09
9.522912228e-09
9.42176954e-09
9.319554634e-09
9.216286218e-09
9.111885042e-09
9.006185784e-09
8.898948946e-09
8.789871137e-09
8.678595937e-09
8.564718488e-09
8.447828074e-09
8.32747625e-09
8.203191756e-09
8.074507067e-09
7.940963821e-09
7.802117176e-09
7.657542116e-09
7.506845375e-09
7.349674718e-09
7.185729672e-09
7.014772999e-09
6.83664277e-09
6.651265037e-09
6.458666288e-09
6.258984812e-09
6.052481152e-09
5.839548429e-09
5.620721463e-09
5.396681765e-09
5.168257437e-09
4.936420867e-09
4.702284556e-09
4.467090073e-09
4.232188877e-09
3.999021135e-09
1.047955132e-08
1.047209858e-08
1.045358435e-08
1.042407565e-08
1.038519514e-08
1.033808308e-08
1.02833637e-08
1.022167665e-08
1.015383286e-08
1.008068978e-08
1.000303955e-08
9.921583128e-09
9.836934674e-09
9.749617392e-09
9.660053032e-09
9.568555928e-09
9.475333826e-09
9.380492276e-09
9.28404068e-09
9.18589896e-09
9.085905654e-09
8.983829059e-09
8.879375865e-09
8.772192927e-09
8.661887827e-09
8.548008826e-09
8.430092897e-09
8.307658941e-09
8.180208962e-09
8.04723835e-09
7.90824857e-09
7.762755956e-09
7.610302284e-09
7.45046598e-09
7.282874729e-09
7.107219313e-09
6.92326833e-09
6.730883958e-09
6.530038501e-09
6.320830348e-09
6.103498214e-09
5.878434315e-09
5.646197275e-09
5.407522214e-09
5.163324215e-09
4.91469624e-09
4.662905014e-09
4.409381355e-09
4.155698447e-09
3.903542589e-09
1.042385776e-08
1.041745358e-08
1.040154433e-08
1.037616138e-08
1.034264268e-08
1.030189713e-08
1.025438893e-08
1.020059892e-08
1.014115976e-08
1.007675053e-08
1.000800249e-08
9.935477535e-09
9.859671445e-09
9.781008933e-09
9.699832897e-09
9.616397329e-09
9.530865846e-09
9.44331343e-09
9.353729632e-09
9.262021898e-09
9.168018832e-09
9.071477496e-09
8.97210808e-09
8.869545614e-09
8.763367974e-09
8.653112357e-09
8.53828739e-09
8.418372238e-09
8.292819477e-09
8.161067058e-09
8.022550333e-09
7.87671105e-09
7.723007983e-09
7.560930239e-09
7.390012433e-09
7.209851223e-09
7.020122982e-09
6.820602834e-09
6.611185444e-09
6.391906647e-09
6.162963576e-09
5.924732229e-09
5.677784424e-09
5.422904054e-09
5.161096995e-09
4.893590619e-09
4.621827484e-09
4.347456458e-09
4.072313065e-09
3.798384082e-09
1.038166162e-08
1.037614479e-08
1.036243947e-08
1.034055395e-08
1.031160007e-08
1.027630864e-08
1.023502548e-08
1.018811171e-08
1.01360608e-08
1.007940951e-08
1.001865841e-08
9.95425405e-09
9.886591447e-09
9.816008878e-09
9.742777377e-09
9.667093165e-09
9.589074508e-09
9.508761394e-09
9.426116105e-09
9.341025182e-09
9.253305239e-09
9.162703562e-09
9.068885046e-09
8.971468383e-09
8.870019064e-09
8.764045912e-09
8.653010419e-09
8.53633621e-09
8.413415164e-09
8.283614713e-09
8.146287254e-09
8.000780647e-09
7.846450229e-09
7.682673314e-09
7.508866312e-09
7.324504303e-09
7.12914251e-09
6.922439317e-09
6.704181424e-09
6.474311689e-09
6.232957521e-09
5.980456127e-09
5.717376352e-09
5.444540246e-09
5.163042011e-09
4.874255219e-09
4.579826057e-09
4.28165985e-09
3.981900467e-09
3.682893338e-09
1.035108971e-08
1.034633792e-08
1.033453079e-08
1.031566209e-08
1.029066084e-08
1.026011886e-08
1.022429447e-08
1.01834589e-08
1.013799676e-08
1.008833088e-08
1.003485609e-08
9.977924285e-09
9.917846247e-09
9.854885834e-09
9.789250373e-09
9.721082851e-09
9.650457968e-09
9.577379845e-09
9.501781431e-09
9.423525803e-09
9.342403556e-09
9.258133047e-09
9.17036221e-09
9.078681455e-09
8.982619696e-09
8.881642103e-09
8.775157864e-09
8.662528328e-09
8.543071756e-09
8.416068811e-09
8.28077134e-09
8.136413454e-09
7.982224386e-09
7.817443835e-09
7.641340536e-09
7.453234653e-09
7.252523924e-09
7.03871225e-09
6.811439949e-09
6.570517363e-09
6.315962577e-09
6.048039048e-09
5.767287502e-09
5.474553147e-09
5.171011623e-09
4.858187459e-09
4.537954932e-09
4.212522738e-09
3.884407366e-09
3.556389262e-09
1.033052949e-08
1.032645044e-08
1.031630676e-08
1.030008444e-08
1.027856263e-08
1.025222307e-08
1.022126053e-08
1.018588052e-08
1.014638108e-08
1.0103093e-08
1.005632602e-08
1.000635546e-08
9.953423802e-09
9.897731387e-09
9.839430595e-09
9.778617122e-09
9.715325926e-09
9.649527247e-09
9.581124852e-09
9.509952688e-09
9.435774867e-09
9.358285047e-09
9.277106911e-09
9.191793765e-09
9.101829904e-09
9.006631612e-09
8.905549757e-09
8.797873642e-09
8.68283491e-09
8.559612627e-09
8.427340873e-09
8.285119059e-09
8.132025128e-09
7.96713184e-09
7.789526569e-09
7.598335717e-09
7.392755016e-09
7.172085079e-09
6.935769758e-09
6.683436829e-09
6.414944012e-09
6.13043028e-09
5.83036497e-09
5.515588443e-09
5.187346719e-09
4.847319968e-09
4.497633911e-09
4.140848039e-09
3.779925406e-09
3.41818086e-09
1.03185669e-08
1.031509686e-08
1.030643315e-08
1.029256783e-08
1.027415684e-08
1.025159154e-08
1.022502334e-08
1.019461704e-08
1.016059448e-08
1.012320921e-08
1.00827042e-08
1.003929462e-08
9.993174826e-09
9.94448551e-09
9.89333494e-09
9.839778689e-09
9.783817073e-09
9.725390493e-09
9.664374993e-09
9.600579074e-09
9.533741662e-09
9.463529741e-09
9.389535862e-09
9.311276264e-09
9.228190925e-09
9.139642837e-09
9.044917467e-09
8.94322384e-09
8.833696867e-09
8.715400948e-09
8.587335663e-09
8.448444397e-09
8.297626771e-09
8.133755579e-09
7.955698235e-09
7.762342917e-09
7.552631317e-09
7.325600125e-09
7.080429986e-09
6.816498271e-09
6.533435869e-09
6.231191525e-09
5.910100742e-09
5.570948627e-09
5.215022186e-09
4.844153803e-09
4.460747196e-09
4.067772286e-09
3.6687301e-09
3.267590297e-09
1.031392021e-08
1.031101312e-08
1.030370294e-08
1.029198015e-08
1.027639258e-08
1.025725617e-08
1.023470001e-08
1.020891073e-08
1.017999501e-08
1.014814426e-08
1.011355059e-08
1.00763795e-08
1.00368312e-08
9.994956574e-09
9.950834542e-09
9.904494596e-09
9.855909523e-09
9.804993889e-09
9.751600246e-09
9.695515318e-09
9.63645542e-09
9.574062159e-09
9.507898573e-09
9.437445625e-09
9.362099217e-09
9.28116715e-09
9.193866191e-09
9.099320229e-09
8.996559877e-09
8.884523678e-09
8.762061328e-09
8.627939747e-09
8.480853238e-09
8.319439355e-09
8.14230137e-09
7.948036844e-09
7.735272715e-09
7.502710471e-09
7.249184315e-09
6.97372967e-09
6.675657375e-09
6.354635241e-09
6.010779228e-09
5.64474523e-09
5.257809158e-09
4.85193353e-09
4.429815991e-09
3.994901237e-09
3.551345947e-09
3.103939495e-09
1.031565058e-08
1.031314985e-08
1.030704132e-08
1.029728424e-08
1.028429068e-08
1.0268286e-08
1.024934495e-08
1.022799133e-08
1.020390976e-08
1.017730523e-08
1.014837117e-08
1.011726166e-08
1.008403447e-08
1.004882521e-08
1.001166548e-08
9.972551502e-09
9.931433076e-09
9.888206001e-09
9.842706126e-09
9.794703831e-09
9.743897893e-09
9.689909515e-09
9.632276822e-09
9.570449289e-09
9.503781977e-09
9.431529782e-09
9.352841675e-09
9.266755436e-09
9.172193522e-09
9.067960617e-09
8.952743525e-09
8.825114045e-09
8.683535606e-09
8.526375526e-09
8.351925552e-09
8.158431797e-09
7.94413338e-09
7.7073113e-09
7.44635328e-09
7.159837257e-09
6.846628258e-09
6.505984729e-09
6.137677933e-09
5.74212154e-09
5.320494622e-09
4.874845681e-09
4.408173015e-09
3.924463425e-09
3.428667257e-09
2.926604131e-09
1.032234513e-08
1.032032698e-08
1.031537081e-08
1.030747377e-08
1.029699786e-08
1.028418304e-08
1.026911024e-08
1.025142046e-08
1.023169895e-08
1.02100438e-08
1.018653412e-08
1.01612547e-08
1.013427546e-08
1.010566487e-08
1.007544643e-08
1.004360317e-08
1.001007288e-08
9.974741121e-09
9.937434902e-09
9.897915795e-09
9.855872428e-09
9.810913221e-09
9.762559054e-09
9.710235358e-09
9.653263527e-09
9.590852023e-09
9.522087369e-09
9.445925034e-09
9.361180662e-09
9.2665225e-09
9.160466233e-09
9.041373275e-09
8.90745282e-09
8.756768592e-09
8.587253607e-09
8.396737238e-09
8.182985952e-09
7.943757012e-09
7.6768692e-09
7.380298555e-09
7.052299787e-09
6.691546114e-09
6.297286544e-09
5.869523012e-09
5.409193731e-09
4.918339897e-09
4.400241668e-09
3.859502016e-09
3.30204381e-09
2.735000247e-09
1.033325396e-08
1.033167917e-08
1.032779278e-08
1.032160806e-08
1.031341046e-08
1.030336058e-08
1.029149527e-08
1.027781263e-08
1.026249439e-08
1.024566801e-08
1.022743191e-08
1.020786313e-08
1.018702292e-08
1.016495709e-08
1.014168194e-08
1.011717604e-08
1.009137413e-08
1.006416099e-08
1.003536406e-08
1.000474522e-08
9.97199274e-09
9.936712694e-09
9.898419646e-09
9.856526247e-09
9.810331795e-09
9.75900988e-09
9.701595388e-09
9.636970958e-09
9.563853123e-09
9.480778535e-09
9.386091537e-09
9.277934945e-09
9.154245206e-09
9.012752145e-09
8.850985112e-09
8.666291348e-09
8.455872828e-09
8.216842837e-09
7.946302666e-09
7.641446838e-09
7.299706713e-09
6.918930204e-09
6.497591156e-09
6.035030088e-09
5.531719094e-09
4.989523089e-09
4.411928925e-09
3.804211009e-09
3.173481278e-09
2.528576373e-09
1.034745094e-08
1.034628934e-08
1.034341986e-08
1.033885617e-08
1.033281531e-08
1.032542112e-08
1.031671949e-08
1.030676303e-08
1.029565557e-08
1.028350543e-08
1.027040639e-08
1.025643472e-08
1.024164742e-08
1.022608598e-08
1.020976746e-08
1.019267377e-08
1.017474554e-08
1.015587628e-08
1.0135904e-08
1.011460237e-08
1.009167172e-08
1.006672902e-08
1.003929661e-08
1.000878957e-08
9.974501453e-09
9.935588226e-09
9.891050625e-09
9.839715311e-09
9.78021524e-09
9.710969169e-09
9.630160453e-09
9.535716774e-09
9.425293904e-09
9.29626519e-09
9.145716823e-09
8.970452559e-09
8.767017391e-09
8.53174834e-09
8.260853686e-09
7.950525693e-09
7.597102061e-09
7.197285714e-09
6.748418646e-09
6.248808663e-09
5.698107691e-09
5.097713736e-09
4.451150601e-09
3.764374393e-09
3.04593097e-09
2.306876892e-09
1.036407478e-08
1.036330208e-08
1.036139541e-08
1.035837344e-08
1.035439212e-08
1.034954828e-08
1.034389528e-08
1.033749769e-08
1.03304444e-08
1.032283014e-08
1.0314743e-08
1.030626125e-08
1.02974497e-08
1.028835609e-08
1.027900444e-08
1.026938842e-08
1.025946533e-08
1.024914812e-08
1.023829674e-08
1.022670944e-08
1.021411298e-08
1.020015107e-08
1.018437132e-08
1.01662105e-08
1.014497752e-08
1.011983386e-08
1.008977111e-08
1.005358609e-08
1.000985423e-08
9.956901121e-09
9.892771882e-09
9.815197948e-09
9.721564333e-09
9.60888197e-09
9.473767139e-09
9.312428351e-09
9.12066791e-09
8.893912376e-09
8.627281759e-09
8.315702453e-09
7.954079375e-09
7.537550045e-09
7.061829611e-09
6.523647907e-09
5.921283084e-09
5.25517153e-09
4.528534112e-09
3.747933075e-09
2.92363463e-09
2.069618451e-09
1.038231213e-08
1.038190865e-08
1.038091678e-08
1.037936303e-08
1.037734873e-08
1.037494861e-08
1.037222216e-08
1.036924154e-08
1.036609581e-08
1.036287931e-08
1.035968197e-08
1.035658765e-08
1.035367146e-08
1.035099513e-08
1.034860032e-08
1.034650251e-08
1.034468521e-08
1.034309205e-08
1.034161764e-08
1.034009889e-08
1.03383048e-08
1.0335924e-08
1.033255019e-08
1.032766517e-08
1.032061913e-08
1.031060793e-08
1.029664658e-08
1.027753851e-08
1.025184065e-08
1.021782505e-08
1.017343724e-08
1.011624971e-08
1.004341006e-08
9.951588563e-09
9.836931445e-09
9.695021854e-09
9.520850547e-09
9.308809828e-09
9.052731003e-09
8.745978356e-09
8.381615624e-09
7.952678101e-09
7.452582009e-09
6.875687218e-09
6.21802963e-09
5.478224739e-09
4.658490452e-09
3.765676403e-09
2.812089444e-09
1.815765058e-09
1.040138994e-08
1.040133754e-08
1.040121514e-08
1.040105865e-08
1.040091932e-08
1.040085258e-08
1.040092783e-08
1.040122966e-08
1.040185122e-08
1.040289029e-08
1.040444631e-08
1.040661696e-08
1.040949385e-08
1.041315828e-08
1.041767696e-08
1.042309627e-08
1.042943628e-08
1.043668313e-08
1.044477947e-08
1.045361568e-08
1.046301977e-08
1.047274482e-08
1.048245378e-08
1.04917006e-08
1.049990786e-08
1.050634096e-08
1.051007829e-08
1.050997585e-08
1.050462481e-08
1.049230172e-08
1.047091306e-08
1.043793351e-08
1.03903345e-08
1.032450303e-08
1.02361578e-08
1.012026957e-08
9.970987168e-09
9.781576947e-09
9.544398902e-09
9.25094661e-09
8.891974854e-09
8.457757207e-09
7.938532708e-09
7.325190436e-09
6.610233479e-09
5.789057094e-09
4.861520736e-09
3.833735301e-09
2.719851405e-09
1.543314155e-09
1.042057195e-08
1.042085206e-08
1.042155308e-08
1.042272123e-08
1.042436257e-08
1.042651713e-08
1.042926638e-08
1.043270891e-08
1.043694639e-08
1.04420862e-08
1.044824175e-08
1.045552743e-08
1.046406066e-08
1.047394931e-08
1.048528849e-08
1.049816404e-08
1.051264432e-08
1.052876952e-08
1.054654273e-08
1.056592349e-08
1.058681664e-08
1.06090603e-08
1.063241046e-08
1.06565218e-08
1.068092432e-08
1.070499486e-08
1.072792335e-08
1.074867368e-08
1.076593601e-08
1.077806771e-08
1.07830228e-08
1.077827112e-08
1.076070531e-08
1.072653025e-08
1.067113551e-08
1.058895928e-08
1.047334944e-08
1.031642429e-08
1.010895097e-08
9.840278116e-09
9.498360913e-09
9.069934328e-09
8.54092697e-09
7.897227545e-09
7.125914109e-09
6.217053746e-09
5.166070161e-09
3.976577654e-09
2.663413939e-09
1.25563388e-09
1.043915887e-08
1.043975202e-08
1.044122893e-08
1.044364622e-08
1.044696889e-08
1.045122477e-08
1.045650922e-08
1.046293662e-08
1.047061683e-08
1.047967022e-08
1.049024137e-08
1.050245793e-08
1.05164683e-08
1.053241101e-08
1.055041611e-08
1.05706155e-08
1.059313664e-08
1.061808698e-08
1.064553515e-08
1.067552433e-08
1.070805622e-08
1.074307616e-08
1.078045836e-08
1.081998786e-08
1.086133772e-08
1.09040409e-08
1.094745448e-08
1.099071599e-08
1.103269122e-08
1.107190993e-08
1.110648403e-08
1.113400701e-08
1.115143578e-08
1.115494978e-08
1.113977849e-08
1.109999853e-08
1.102830783e-08
1.091577812e-08
1.075159252e-08
1.052280148e-08
1.021414743e-08
9.808021457e-09
9.284671725e-09
8.6228587e-09
7.801205589e-09
6.800644998e-09
5.608194719e-09
4.222237011e-09
2.658046345e-09
9.525596365e-10
1.045649109e-08
1.045737625e-08
1.045957778e-08
1.046316336e-08
1.046806153e-08
1.047428872e-08
1.048195484e-08
1.049119434e-08
1.050212276e-08
1.051485397e-08
1.052962408e-08
1.054653665e-08
1.056579911e-08
1.058755928e-08
1.061199315e-08
1.063929288e-08
1.06696456e-08
1.070326793e-08
1.074026662e-08
1.07807794e-08
1.082492745e-08
1.087278542e-08
1.092436921e-08
1.097962677e-08
1.103841262e-08
1.110045965e-08
1.116534828e-08
1.123246204e-08
1.130093043e-08
1.136956109e-08
1.143675316e-08
1.150038322e-08
1.155766359e-08
1.160497008e-08
1.163762663e-08
1.164963416e-08
1.163334278e-08
1.157906679e-08
1.147463669e-08
1.13049023e-08
1.105123328e-08
1.069108713e-08
1.019775992e-08
9.540538451e-09
8.685536046e-09
7.598023338e-09
6.24679197e-09
4.614149841e-09
2.708531125e-09
5.847644e-10
1.047195299e-08
1.047310783e-08
1.047597835e-08
1.048064251e-08
1.048699672e-08
1.049505077e-08
1.050493314e-08
1.051679392e-08
1.053078628e-08
1.054707959e-08
1.056576298e-08
1.05870964e-08
1.061124899e-08
1.06384678e-08
1.066899377e-08
1.070304606e-08
1.074082163e-08
1.078286854e-08
1.082913323e-08
1.08799092e-08
1.093546023e-08
1.099599052e-08
1.10616846e-08
1.113267842e-08
1.120904443e-08
1.12907649e-08
1.137770037e-08
1.146954979e-08
1.156579695e-08
1.166564204e-08
1.176791412e-08
1.187095476e-08
1.197246273e-08
1.206929561e-08
1.215721822e-08
1.223057306e-08
1.22818518e-08
1.230115567e-08
1.227552182e-08
1.218809381e-08
1.201715345e-08
1.173507189e-08
1.130733339e-08
1.069186291e-08
9.839011462e-09
8.692750278e-09
7.192367178e-09
5.283343593e-09
2.923712967e-09
1.667494331e-10
1.048497703e-08
1.048637892e-08
1.048985722e-08
1.049549887e-08
1.050318043e-08
1.051290882e-08
1.052481501e-08
1.053906597e-08
1.05558305e-08
1.057528011e-08
1.059759467e-08
1.062300374e-08
1.065174983e-08
1.068410554e-08
1.072036349e-08
1.076084024e-08
1.080589976e-08
1.085557995e-08
1.09105299e-08
1.097105038e-08
1.103756692e-08
1.111033494e-08
1.118974637e-08
1.127614891e-08
1.136984095e-08
1.147109262e-08
1.15801054e-08
1.169696102e-08
1.182158337e-08
1.195367882e-08
1.209265133e-08
1.223749682e-08
1.238665182e-08
1.253778529e-08
1.268752764e-08
1.283110655e-08
1.296184544e-08
1.307048739e-08
1.314429111e-08
1.316581245e-08
1.311129889e-08
1.294863661e-08
1.263498064e-08
1.211419958e-08
1.131585091e-08
1.015505017e-08
8.538612966e-09
6.372617539e-09
3.53862706e-09
2.770143877e-11
1.049504741e-08
1.049666833e-08
1.050068613e-08
1.050721134e-08
1.051607928e-08
1.05272919e-08
1.054100116e-08
1.055739265e-08
1.05766455e-08
1.05989482e-08
1.062451915e-08
1.065361189e-08
1.068650824e-08
1.072351782e-08
1.076497729e-08
1.081124976e-08
1.086271911e-08
1.091975932e-08
1.098287339e-08
1.105254752e-08
1.112919037e-08
1.121342541e-08
1.130579385e-08
1.140685181e-08
1.151715106e-08
1.163726832e-08
1.176776354e-08
1.190915156e-08
1.206187164e-08
1.222623345e-08
1.240235302e-08
1.259006305e-08
1.278877869e-08
1.299731057e-08
1.321361028e-08
1.343441173e-08
1.365471408e-08
1.386704826e-08
1.406043653e-08
1.421887284e-08
1.431909891e-08
1.432730919e-08
1.419445986e-08
1.384905604e-08
1.318982455e-08
1.207240215e-08
1.032737067e-08
7.741350719e-09
4.18847546e-09
-3.360362035e-10
1.050170924e-08
1.050351593e-08
1.050801143e-08
1.051529626e-08
1.052519321e-08
1.053769341e-08
1.055296639e-08
1.057121591e-08
1.059263561e-08
1.061743313e-08
1.06458522e-08
1.067817437e-08
1.071471468e-08
1.07558207e-08
1.080187397e-08
1.085329155e-08
1.091052662e-08
1.097407042e-08
1.10444719e-08
1.112231912e-08
1.120824122e-08
1.130294416e-08
1.140713995e-08
1.152161391e-08
1.164723301e-08
1.178493771e-08
1.193560613e-08
1.21002073e-08
1.227976005e-08
1.24751924e-08
1.268743657e-08
1.291731617e-08
1.316542271e-08
1.343198924e-08
1.37166962e-08
1.401836843e-08
1.433452488e-08
1.466071936e-08
1.498956971e-08
1.53092568e-08
1.560117968e-08
1.583616925e-08
1.596834291e-08
1.592369703e-08
1.558252006e-08
1.473427881e-08
1.305155324e-08
9.861135624e-09
4.624008098e-09
-3.85062097e-09
1.050457758e-08
1.050653614e-08
1.051142312e-08
1.051934296e-08
1.053009236e-08
1.054366588e-08
1.05602451e-08
1.058004806e-08
1.060328287e-08
1.063017428e-08
1.066098713e-08
1.069602835e-08
1.073564285e-08
1.078021327e-08
1.083016324e-08
1.088596128e-08
1.094812449e-08
1.101722285e-08
1.109388635e-08
1.117880801e-08
1.127274845e-08
1.137654392e-08
1.149110924e-08
1.161745443e-08
1.175669121e-08
1.190996716e-08
1.207862114e-08
1.226406855e-08
1.246806564e-08
1.26920147e-08
1.293771867e-08
1.320705731e-08
1.350186824e-08
1.38239732e-08
1.417505535e-08
1.455642754e-08
1.496872759e-08
1.541148488e-08
1.588240611e-08
1.637623616e-08
1.688299143e-08
1.738508483e-08
1.785251609e-08
1.823382907e-08
1.844026888e-08
1.83018295e-08
1.750314428e-08
1.518276718e-08
9.986738158e-09
-5.473691236e-09
1.05033063e-08
1.050539305e-08
1.051058862e-08
1.051900237e-08
1.053042125e-08
1.054483963e-08
1.0562448e-08
1.058347657e-08
1.060814566e-08
1.063669402e-08
1.06694039e-08
1.070660345e-08
1.074866279e-08
1.079599469e-08
1.084905906e-08
1.090836837e-08
1.097449323e-08
1.104806828e-08
1.112979899e-08
1.122046838e-08
1.132094501e-08
1.143219449e-08
1.155529226e-08
1.169143485e-08
1.184195087e-08
1.200832195e-08
1.219222516e-08
1.239553004e-08
1.262007468e-08
1.286840075e-08
1.314302743e-08
1.344687113e-08
1.378291624e-08