/*--------------------------------*- C++ -*----------------------------------*\
| =========                 |                                                 |
| \\      /  F ield         | foam-extend: Open Source CFD                    |
|  \\    /   O peration     | Version:     4.1                                |
|   \\  /    A nd           | Web:         http://www.foam-extend.org         |
|    \\/     M anipulation  |                                                 |
\*---------------------------------------------------------------------------*/
FoamFile
{
    version     2.0;
    format      ascii;
    class       surfaceScalarField;
    location    "180000";
    object      phi;
}
// * * * * * * * * * * * * * * * * * * * * * * * * * * * * * * * * * * * * * //

dimensions      [0 3 -1 0 0 0 0];

internalField   nonuniform List<scalar> 
31542
(
1.062489276e-07
3.081072388e-09
1.006026006e-07
5.646327808e-09
9.407588692e-08
6.526713783e-09
8.726075045e-08
6.815136302e-09
8.043860764e-08
6.8221427e-09
7.386921427e-08
6.569393542e-09
6.772731329e-08
6.14190139e-09
6.210880688e-08
5.618506791e-09
5.706011968e-08
5.04868725e-09
5.259265759e-08
4.46746162e-09
4.869299854e-08
3.899658093e-09
4.532930571e-08
3.36369164e-09
4.245747374e-08
2.871830874e-09
4.002699591e-08
2.430477048e-09
3.798534912e-08
2.041646392e-09
3.628097062e-08
1.704378373e-09
3.48652296e-08
1.41574096e-09
3.369364568e-08
1.171583767e-09
3.272651672e-08
9.671285952e-10
3.192911351e-08
7.974025962e-10
3.127158018e-08
6.57532475e-10
3.072864408e-08
5.429350555e-10
3.027921069e-08
4.494322024e-10
2.990589556e-08
3.73313934e-10
2.959451293e-08
3.113816125e-10
2.933359395e-08
2.609183153e-10
2.911394082e-08
2.196529792e-10
2.892821923e-08
1.857219554e-10
2.877059592e-08
1.576240073e-10
2.863642445e-08
1.341721619e-10
2.852197755e-08
1.144472697e-10
2.842421915e-08
9.775820649e-11
2.834060349e-08
8.361489473e-11
2.826904532e-08
7.155699663e-11
2.820774937e-08
6.129467466e-11
2.815506378e-08
5.268447877e-11
2.810943781e-08
4.562520853e-11
2.806937882e-08
4.005856432e-11
2.803342281e-08
3.595581868e-11
2.800011764e-08
3.330505103e-11
2.796802004e-08
3.209744785e-11
2.793571962e-08
3.230015563e-11
2.790187411e-08
3.38451366e-11
2.78649988e-08
3.687481897e-11
2.782363765e-08
4.136056842e-11
2.77763718e-08
4.726527809e-11
2.772182172e-08
5.454963301e-11
2.765866062e-08
6.316086618e-11
2.758562273e-08
7.303775582e-11
8.411059194e-11
2.750151192e-08
1.113835711e-07
1.027501096e-09
1.139939499e-07
3.035949506e-09
1.160781724e-07
4.442492018e-09
1.174446972e-07
5.448611953e-09
1.180505732e-07
6.216266563e-09
1.178896559e-07
6.730310557e-09
1.170544271e-07
6.977130008e-09
1.156725541e-07
7.000380235e-09
1.138704185e-07
6.850823997e-09
1.117664315e-07
6.571450211e-09
1.094663282e-07
6.199762983e-09
1.070599944e-07
5.770026644e-09
1.04620232e-07
5.311593812e-09
1.022039332e-07
4.84677574e-09
9.985359615e-08
4.391982996e-09
9.759937003e-08
3.958604141e-09
9.546119274e-08
3.553918227e-09
9.345085815e-08
3.181918734e-09
9.157390765e-08
2.84407979e-09
8.983125679e-08
2.540054367e-09
8.822052415e-08
2.268266222e-09
8.673707655e-08
2.02638396e-09
8.53748471e-08
1.811663139e-09
8.412699107e-08
1.621171511e-09
8.298625145e-08
1.452122631e-09
8.194527326e-08
1.301897523e-09
8.099681082e-08
1.168115941e-09
8.013386054e-08
1.04867242e-09
7.934974044e-08
9.41744301e-10
7.86381295e-08
8.457836988e-10
7.799307912e-08
7.594988956e-10
7.74090107e-08
6.818284912e-10
7.688071963e-08
6.119081558e-10
7.640324578e-08
5.49032933e-10
7.597188276e-08
4.926592757e-10
7.558218884e-08
4.423792976e-10
7.522993588e-08
3.978784471e-10
7.491108042e-08
3.58913926e-10
7.46217371e-08
3.252989539e-10
7.435815465e-08
2.968874361e-10
7.411669239e-08
2.735598542e-10
7.389377828e-08
2.552146511e-10
7.368585101e-08
2.41773011e-10
7.348953747e-08
2.331891435e-10
7.330151324e-08
2.293856675e-10
7.311851342e-08
2.302658697e-10
7.293733993e-08
2.357237254e-10
7.275486163e-08
2.456397546e-10
7.256802232e-08
2.598779018e-10
2.78283356e-10
7.237385058e-08
1.096478092e-07
7.096920105e-10
1.107358982e-07
1.947860602e-09
1.121996167e-07
2.978773867e-09
1.138594394e-07
3.788789902e-09
1.156255126e-07
4.450194119e-09
1.173687082e-07
4.98711554e-09
1.189619784e-07
5.383859845e-09
1.203230594e-07
5.63929881e-09
1.214058081e-07
5.768074463e-09
1.221906031e-07
5.786654125e-09
1.22679392e-07
5.71097322e-09
1.228910402e-07
5.558377787e-09
1.228555259e-07
5.347107777e-09
1.226079578e-07
5.09434369e-09
1.221847793e-07
4.815161278e-09
1.216212137e-07
4.522169349e-09
1.209497069e-07
4.225424497e-09
1.201990698e-07
3.932555157e-09
1.193941532e-07
3.648995444e-09
1.185558854e-07
3.378321206e-09
1.177015292e-07
3.122621252e-09
1.168450621e-07
2.882850022e-09
1.159975883e-07
2.659136093e-09
1.151677118e-07
2.451047435e-09
1.14362009e-07
2.257825432e-09
1.135853777e-07
2.07852928e-09
1.128413466e-07
1.912147686e-09
1.121323369e-07
1.757682585e-09
1.114598768e-07
1.614204527e-09
1.108247749e-07
1.480885098e-09
1.102272605e-07
1.357012377e-09
1.096670935e-07
1.241994282e-09
1.091436467e-07
1.135353847e-09
1.086559603e-07
1.036718417e-09
1.082028089e-07
9.458100712e-10
1.077827518e-07
8.624361756e-10
1.073941573e-07
7.864728452e-10
1.070352234e-07
7.178477404e-10
1.067039954e-07
6.565268573e-10
1.063983796e-07
6.025031394e-10
1.061161531e-07
5.55786207e-10
1.058549734e-07
5.163940364e-10
1.056123996e-07
4.843465433e-10
1.053859245e-07
4.596639476e-10
1.05172956e-07
4.423539812e-10
1.049708241e-07
4.323976333e-10
1.047767989e-07
4.29748913e-10
1.045881026e-07
4.343358198e-10
1.044019213e-07
4.460589014e-10
4.64785935e-10
1.042154187e-07
1.095661325e-07
4.735601313e-10
1.100935218e-07
1.42047168e-09
1.108141982e-07
2.258097566e-09
1.116554737e-07
2.947514637e-09
1.126051225e-07
3.500545886e-09
1.136536289e-07
3.93861016e-09
1.147685667e-07
4.268923271e-09
1.159107513e-07
4.497115247e-09
1.170437416e-07
4.635084742e-09
1.181341619e-07
4.696233807e-09
1.19152988e-07
4.692146649e-09
1.200780263e-07
4.633338903e-09
1.208949876e-07
4.530145936e-09
1.215968465e-07
4.39248458e-09
1.22182706e-07
4.229301783e-09
1.22656497e-07
4.048378565e-09
1.230256138e-07
3.856307968e-09
1.232996593e-07
3.658510076e-09
1.23489384e-07
3.4592711e-09
1.236058717e-07
3.261833924e-09
1.236599605e-07
3.068532819e-09
1.236618638e-07
2.880947044e-09
1.236209453e-07
2.70005468e-09
1.23545616e-07
2.526376598e-09
1.234433339e-07
2.360107312e-09
1.233206378e-07
2.201225162e-09
1.23183208e-07
2.049577477e-09
1.230359434e-07
1.904947598e-09
1.228830432e-07
1.767105364e-09
1.227280866e-07
1.635842536e-09
1.225741043e-07
1.510995271e-09
1.224236422e-07
1.392456858e-09
1.222788135e-07
1.280182519e-09
1.221413441e-07
1.174187678e-09
1.220126091e-07
1.074544778e-09
1.218936663e-07
9.813786828e-10
1.217852814e-07
8.948577407e-10
1.216879472e-07
8.151821172e-10
1.216019008e-07
7.425737317e-10
1.215271378e-07
6.772667551e-10
1.214634258e-07
6.194988863e-10
1.214103165e-07
5.695041126e-10
1.213671604e-07
5.275032447e-10
1.213331213e-07
4.937035026e-10
1.213071841e-07
4.68291511e-10
1.212881646e-07
4.514174622e-10
1.212747179e-07
4.431958744e-10
1.212653534e-07
4.437006264e-10
1.2125845e-07
4.529621326e-10
4.709666013e-10
1.21252269e-07
1.094415341e-07
3.620265786e-10
1.097675268e-07
1.094479997e-09
1.102581122e-07
1.767512838e-09
1.108598265e-07
2.345800803e-09
1.115354486e-07
2.824923945e-09
1.122617809e-07
3.212277993e-09
1.130178753e-07
3.512828836e-09
1.137850366e-07
3.72995398e-09
1.145496484e-07
3.870472892e-09
1.153017216e-07
3.944160481e-09
1.160327736e-07
3.961094442e-09
1.167354155e-07
3.930696617e-09
1.174036977e-07
3.861863438e-09
1.180332879e-07
3.762894064e-09
1.186214067e-07
3.641182611e-09
1.191667242e-07
3.503060764e-09
1.196692163e-07
3.35381556e-09
1.201299641e-07
3.197761965e-09
1.205509129e-07
3.038321989e-09
1.20934629e-07
2.878117671e-09
1.212840794e-07
2.719082409e-09
1.216024464e-07
2.562580151e-09
1.218929804e-07
2.409520897e-09
1.221588906e-07
2.260466666e-09
1.224032711e-07
2.115726785e-09
1.22629056e-07
1.975440084e-09
1.228389924e-07
1.839640534e-09
1.230356304e-07
1.708309023e-09
1.232213225e-07
1.581412575e-09
1.233982301e-07
1.458934396e-09
1.235683312e-07
1.340893827e-09
1.237334294e-07
1.227358526e-09
1.238951614e-07
1.118450385e-09
1.240550025e-07
1.014346573e-09
1.242142699e-07
9.152772422e-10
1.24374127e-07
8.215215294e-10
1.245355846e-07
7.334000917e-10
1.246995021e-07
6.512648019e-10
1.24866585e-07
5.754912005e-10
1.250373835e-07
5.064687456e-10
1.252122924e-07
4.445905451e-10
1.253915505e-07
3.902465395e-10
1.255752391e-07
3.438152578e-10
1.25763278e-07
3.056651083e-10
1.259554489e-07
2.761209238e-10
1.261513779e-07
2.554885756e-10
1.263505444e-07
2.440293091e-10
1.265522926e-07
2.419523239e-10
1.267558369e-07
2.49417527e-10
2.66533311e-10
1.269602697e-07
1.094061852e-07
2.858415564e-10
1.096395979e-07
8.610680025e-10
1.100049962e-07
1.402115451e-09
1.104667718e-07
1.884026163e-09
1.109949415e-07
2.296755103e-09
1.115673762e-07
2.639843765e-09
1.121654624e-07
2.914742627e-09
1.127723956e-07
3.123020438e-09
1.133746499e-07
3.268217939e-09
1.139625402e-07
3.3562697e-09
1.145294294e-07
3.394204863e-09
1.1507099e-07
3.389135945e-09
1.155848421e-07
3.348011305e-09
1.160702211e-07
3.277515211e-09
1.165275586e-07
3.183845157e-09
1.169581098e-07
3.072509669e-09
1.173636787e-07
2.948246625e-09
1.17746415e-07
2.815025693e-09
1.181086513e-07
2.676085781e-09
1.184527756e-07
2.533993354e-09
1.187811375e-07
2.390720486e-09
1.190959825e-07
2.247734954e-09
1.19399411e-07
2.106092369e-09
1.196933539e-07
1.966523686e-09
1.199795657e-07
1.829515018e-09
1.202596281e-07
1.695377786e-09
1.205349611e-07
1.56430765e-09
1.208068375e-07
1.436432529e-09
1.21076399e-07
1.31185081e-09
1.213446721e-07
1.190660964e-09
1.216125825e-07
1.072982958e-09
1.218809678e-07
9.589727867e-10
1.221505863e-07
8.488316065e-10
1.224221223e-07
7.428103687e-10
1.226961908e-07
6.412086732e-10
1.229733387e-07
5.443737391e-10
1.232540434e-07
4.52695728e-10
1.235387092e-07
3.665994673e-10
1.23827663e-07
2.865380573e-10
1.241211519e-07
2.129805223e-10
1.244193345e-07
1.464086657e-10
1.247222818e-07
8.729996741e-11
1.250299743e-07
3.612339097e-11
1.253422142e-07
-6.57431648e-12
1.256587893e-07
-4.045390834e-11
1.259794121e-07
-6.513406035e-11
1.263037087e-07
-8.02673431e-11
1.266312146e-07
-8.555397082e-11
1.26961376e-07
-8.074457801e-11
-6.564864373e-11
1.272935574e-07
1.093873526e-07
2.284892744e-10
1.095595025e-07
6.889181601e-10
1.098334091e-07
1.128209076e-09
1.101886547e-07
1.528780843e-09
1.106051556e-07
1.880254561e-09
1.110659918e-07
2.179007761e-09
1.115562803e-07
2.424454105e-09
1.120621812e-07
2.61711915e-09
1.125715262e-07
2.758872391e-09
1.130745803e-07
2.853215033e-09
1.135640392e-07
2.904745557e-09
1.140346974e-07
2.918477499e-09
1.144832037e-07
2.899504998e-09
1.149078546e-07
2.852864261e-09
1.153083213e-07
2.783378436e-09
1.156853386e-07
2.695492219e-09
1.160404188e-07
2.593166187e-09
1.163756064e-07
2.479837934e-09
1.1669327e-07
2.358422105e-09
1.169959311e-07
2.231332311e-09
1.172861308e-07
2.100520904e-09
1.175663333e-07
1.967532566e-09
1.178388605e-07
1.833565106e-09
1.181058525e-07
1.699531523e-09
1.183692477e-07
1.566119663e-09
1.186307779e-07
1.433847239e-09
1.188919747e-07
1.303110657e-09
1.191541803e-07
1.174226828e-09
1.19418563e-07
1.047467956e-09
1.196861341e-07
9.230896926e-10
1.199577645e-07
8.013524449e-10
1.202341998e-07
6.825372499e-10
1.205160738e-07
5.669572755e-10
1.208039174e-07
4.54966524e-10
1.210981671e-07
3.469588148e-10
1.213991663e-07
2.433745767e-10
1.217071838e-07
1.446783626e-10
1.220224105e-07
5.13730758e-11
1.223449473e-07
-3.599829998e-11
1.226748105e-07
-1.168821758e-10
1.230119267e-07
-1.907069984e-10
1.233561337e-07
-2.569063915e-10
1.237071821e-07
-3.149244623e-10
1.2406482e-07
-3.642118814e-10
1.244286294e-07
-4.04263264e-10
1.247980908e-07
-4.345956299e-10
1.251726002e-07
-4.547768503e-10
1.255514821e-07
-4.644361506e-10
1.259340013e-07
-4.63264241e-10
-4.510181399e-10
1.263193699e-07
1.093735611e-07
1.849286491e-10
1.095045568e-07
5.579228573e-10
1.097158486e-07
9.169174662e-10
1.099953379e-07
1.24929168e-09
1.103292284e-07
1.546363931e-09
1.107044579e-07
1.803777981e-09
1.111091265e-07
2.019785128e-09
1.115322912e-07
2.193953909e-09
1.11964178e-07
2.326985223e-09
1.123965885e-07
2.420804163e-09
1.12823019e-07
2.478314971e-09
1.132385265e-07
2.502969966e-09
1.136395753e-07
2.498456272e-09
1.140239127e-07
2.468526935e-09
1.143904208e-07
2.416870286e-09
1.147389308e-07
2.34698202e-09
1.150700293e-07
2.262067344e-09
1.153848788e-07
2.164988041e-09
1.156850568e-07
2.05824377e-09
1.159724144e-07
1.943974511e-09
1.162489569e-07
1.823978424e-09
1.165167475e-07
1.699742085e-09
1.16777834e-07
1.57247897e-09
1.17034194e-07
1.443171771e-09
1.172876985e-07
1.312615309e-09
1.17540088e-07
1.181457846e-09
1.177929594e-07
1.050239228e-09
1.180477612e-07
9.194249668e-10
1.183057937e-07
7.894354723e-10
1.185682117e-07
6.606716202e-10
1.188360317e-07
5.33532398e-10
1.191101389e-07
4.084300249e-10
1.19391293e-07
2.858031249e-10
1.196801234e-07
1.661359898e-10
1.199771777e-07
4.990436757e-11
1.202828546e-07
-6.230243939e-11
1.20597462e-07
-1.699290852e-10
1.209211735e-07
-2.723382751e-10
1.212540592e-07
-3.688839169e-10
1.215960837e-07
-4.589064404e-10
1.21947109e-07
-5.417319916e-10
1.223068872e-07
-6.166842409e-10
1.226750632e-07
-6.831002022e-10
1.230511872e-07
-7.403355167e-10
1.234346984e-07
-7.877743575e-10
1.238249491e-07
-8.248466963e-10
1.24221206e-07
-8.510343532e-10
1.246226541e-07
-8.658845257e-10
1.250284088e-07
-8.690188708e-10
-8.601392741e-10
1.254375298e-07
1.093642443e-07
1.506844074e-10
1.094673191e-07
4.548482354e-10
1.096347606e-07
7.494762161e-10
1.098587322e-07
1.025320144e-09
1.1012964e-07
1.275456139e-09
1.104377452e-07
1.49567238e-09
1.107738558e-07
1.683674073e-09
1.111294283e-07
1.838380898e-09
1.11496692e-07
1.95972108e-09
1.118688904e-07
2.048605605e-09
1.122404358e-07
2.106769458e-09
1.126069078e-07
2.136498097e-09
1.129649783e-07
2.140385777e-09
1.133123291e-07
2.121176026e-09
1.13647554e-07
2.081645136e-09
1.139700375e-07
2.024498148e-09
1.142798213e-07
1.952283085e-09
1.145774743e-07
1.867334543e-09
1.148639728e-07
1.771744827e-09
1.151405923e-07
1.667354771e-09
1.154088121e-07
1.555758514e-09
1.156702351e-07
1.438319128e-09
1.159265222e-07
1.316192216e-09
1.1617934e-07
1.19035433e-09
1.164303221e-07
1.061633593e-09
1.166810398e-07
9.307405502e-10
1.16932982e-07
7.982974294e-10
1.171875411e-07
6.648661626e-10
1.174460047e-07
5.309720788e-10
1.177095465e-07
3.97129964e-10
1.179792282e-07
2.63850683e-10
1.182559971e-07
1.31661152e-10
1.185407188e-07
1.081288976e-12
1.188340595e-07
-1.272048224e-10
1.19136621e-07
-2.526573026e-10
1.194488808e-07
-3.745625937e-10
1.197711762e-07
-4.922247474e-10
1.201037396e-07
-6.049019187e-10
1.204466766e-07
-7.118209902e-10
1.2079996e-07
-8.121898106e-10
1.211634342e-07
-9.052060176e-10
1.21536816e-07
-9.900660226e-10
1.219196931e-07
-1.065977327e-09
1.223115273e-07
-1.13216973e-09
1.227116624e-07
-1.187909203e-09
1.231193294e-07
-1.232513455e-09
1.235336567e-07
-1.265361979e-09
1.239536812e-07
-1.285909837e-09
1.243783623e-07
-1.293700273e-09
-1.28837316e-09
1.248065968e-07
1.093575824e-07
1.231018927e-10
1.094404825e-07
3.719480766e-10
1.095756757e-07
6.142830269e-10
1.097578584e-07
8.431374781e-10
1.099803257e-07
1.052988931e-09
1.102359262e-07
1.240071761e-09
1.105176195e-07
1.401980564e-09
1.108186949e-07
1.537305228e-09
1.111329248e-07
1.64549094e-09
1.114547519e-07
1.726778428e-09
1.117794368e-07
1.782084596e-09
1.121031093e-07
1.812825615e-09
1.124227494e-07
1.820745693e-09
1.127361395e-07
1.807785743e-09
1.13041802e-07
1.775982238e-09
1.133389192e-07
1.727380294e-09
1.136272412e-07
1.663960371e-09
1.139069904e-07
1.587584796e-09
1.141787696e-07
1.4999651e-09
1.14443478e-07
1.402646169e-09
1.147022339e-07
1.297002744e-09
1.149563078e-07
1.184245445e-09
1.152070662e-07
1.065434063e-09
1.154559251e-07
9.414958862e-10
1.157043118e-07
8.132473151e-10
1.159536359e-07
6.814169584e-10
1.162052669e-07
5.466668496e-10
1.164605187e-07
4.096148357e-10
1.167206381e-07
2.708529835e-10
1.169867604e-07
1.310078914e-10
1.172599784e-07
-9.367105245e-12
1.175412507e-07
-1.496111602e-10
1.178314153e-07
-2.890833744e-10
1.181312712e-07
-4.270608528e-10
1.184414278e-07
-5.628142055e-10
1.187624123e-07
-6.955474773e-10
1.190946097e-07
-8.244226093e-10
1.19438272e-07
-9.485646219e-10
1.197935143e-07
-1.067063488e-09
1.201603082e-07
-1.178983809e-09
1.205384784e-07
-1.283376139e-09
1.209277007e-07
-1.379288033e-09
1.21327501e-07
-1.465777562e-09
1.217372595e-07
-1.541928489e-09
1.221562165e-07
-1.606866414e-09
1.225834791e-07
-1.659775668e-09
1.230180326e-07
-1.699914882e-09
1.23458755e-07
-1.726632164e-09
1.239044336e-07
-1.739379412e-09
-1.737724209e-09
1.243537846e-07
1.09352595e-07
1.005069117e-10
1.094204317e-07
3.04111493e-10
1.095313668e-07
5.033479284e-10
1.096816788e-07
6.928254929e-10
1.098665672e-07
8.681006033e-10
1.100807267e-07
1.02591226e-09
1.103187526e-07
1.163954698e-09
1.105753728e-07
1.280684963e-09
1.108456124e-07
1.375251414e-09
1.111249464e-07
1.447444491e-09
1.114094216e-07
1.497609462e-09
1.116957208e-07
1.526526496e-09
1.119811755e-07
1.53529108e-09
1.122637482e-07
1.525212847e-09
1.12541998e-07
1.497731969e-09
1.128150307e-07
1.454346957e-09
1.130824372e-07
1.396553183e-09
1.133442259e-07
1.325795361e-09
1.13600755e-07
1.243435458e-09
1.138526668e-07
1.150734145e-09
1.141008267e-07
1.048842806e-09
1.143462686e-07
9.388036891e-10
1.145901464e-07
8.215565782e-10
1.14833693e-07
6.979496506e-10
1.15078185e-07
5.687557705e-10
1.153249127e-07
4.346896041e-10
1.155751564e-07
2.964234163e-10
1.158301589e-07
1.546125424e-10
1.160912202e-07
9.791858864e-12
1.163593485e-07
-1.371202537e-10
1.166356927e-07
-2.857111627e-10
1.169212445e-07
-4.351628888e-10
1.172168962e-07
-5.847351631e-10
1.175234548e-07
-7.336197105e-10
1.178415971e-07
-8.809567373e-10
1.181718799e-07
-1.025830651e-09
1.185147277e-07
-1.167270634e-09
1.188704208e-07
-1.304257826e-09
1.192390876e-07
-1.435730395e-09
1.196206966e-07
-1.560592836e-09
1.200150491e-07
-1.677728686e-09
1.204217762e-07
-1.786014758e-09
1.208403364e-07
-1.884337282e-09
1.21270018e-07
-1.971609832e-09
1.217099439e-07
-2.046792677e-09
1.221590813e-07
-2.108913371e-09
1.22616254e-07
-2.157087083e-09
1.230801583e-07
-2.190535514e-09
1.235493836e-07
-2.208604104e-09
-2.210776951e-09
1.240224362e-07
1.093487756e-07
8.173136483e-11
1.0940509e-07
2.477973417e-10
1.094973593e-07
4.11078855e-10
1.09622874e-07
5.67310987e-10
1.09778107e-07
7.128678215e-10
1.099590762e-07
8.449432238e-10
1.101616271e-07
9.614038675e-10
1.103816273e-07
1.06068495e-09
1.106151136e-07
1.141765307e-09
1.10858419e-07
1.204139278e-09
1.111082745e-07
1.247754207e-09
1.113618741e-07
1.272927076e-09
1.116169045e-07
1.280260798e-09
1.118715475e-07
1.270569674e-09
1.121244655e-07
1.24481368e-09
1.123747721e-07
1.204039871e-09
1.126219931e-07
1.149331607e-09
1.1286602e-07
1.081767904e-09
1.131070607e-07
1.002394319e-09
1.1334559e-07
9.122044129e-10
1.135823027e-07
8.121299241e-10
1.138180683e-07
7.030379305e-10
1.140538909e-07
5.857340424e-10
1.142908741e-07
4.609664597e-10
1.14530189e-07
3.294410068e-10
1.14773045e-07
1.918336647e-10
1.150206871e-07
4.878125978e-11
1.15274328e-07
-9.902843599e-11
1.155350894e-07
-2.509696152e-10
1.158042694e-07
-4.063002809e-10
1.160828916e-07
-5.643332781e-10
1.163720063e-07
-7.242775387e-10
1.166725621e-07
-8.852909525e-10
1.169854122e-07
-1.046469822e-09
1.173112967e-07
-1.206841365e-09
1.176508291e-07
-1.365363139e-09
1.180044827e-07
-1.520924187e-09
1.183725755e-07
-1.67235037e-09
1.187552575e-07
-1.818412085e-09
1.191524999e-07
-1.957834937e-09
1.19564085e-07
-2.089313764e-09
1.199895998e-07
-2.211529538e-09
1.204284318e-07
-2.323168927e-09
1.208797688e-07
-2.422946192e-09
1.213426035e-07
-2.509626905e-09
1.21815743e-07
-2.582053049e-09
1.222978242e-07
-2.639168546e-09
1.227873327e-07
-2.680043758e-09
1.232826269e-07
-2.703897671e-09
-2.7101168e-09
1.237819673e-07
1.093457846e-07
6.594679642e-11
1.093930773e-07
2.005048667e-10
1.094706643e-07
3.334920049e-10
1.095765138e-07
4.614618393e-10
1.097079775e-07
5.81404331e-10
1.098620292e-07
6.908917978e-10
1.100354575e-07
7.879758617e-10
1.102250147e-07
8.711279412e-10
1.104275406e-07
9.392397595e-10
1.106400678e-07
9.916125862e-10
1.108599082e-07
1.027914261e-09
1.110847143e-07
1.048121378e-09
1.11312514e-07
1.052461296e-09
1.115417249e-07
1.041358876e-09
1.117711516e-07
1.015386797e-09
1.119999721e-07
9.752191362e-10
1.122277133e-07
9.215900865e-10
1.124542207e-07
8.552601393e-10
1.126796236e-07
7.769909841e-10
1.129042988e-07
6.87528759e-10
1.131288346e-07
5.875935962e-10
1.133539956e-07
4.778765353e-10
1.135806899e-07
3.590393902e-10
1.138099403e-07
2.317157141e-10
1.140428386e-07
9.654236741e-11
1.142805647e-07
-4.589289082e-11
1.14524302e-07
-1.949564286e-10
1.147752847e-07
-3.500115251e-10
1.150347077e-07
-5.103927723e-10
1.153037907e-07
-6.753832322e-10
1.155836712e-07
-8.442137652e-10
1.158754441e-07
-1.016050406e-09
1.161801313e-07
-1.189978087e-09
1.164986617e-07
-1.365000076e-09
1.168318533e-07
-1.540032745e-09
1.171803941e-07
-1.713903686e-09
1.175448237e-07
-1.885353506e-09
1.179255149e-07
-2.053041161e-09
1.18322656e-07
-2.215552667e-09
1.187362348e-07
-2.371413214e-09
1.191660246e-07
-2.51910308e-09
1.196115725e-07
-2.657077431e-09
1.200721933e-07
-2.783789885e-09
1.205469668e-07
-2.89771948e-09
1.210347407e-07
-2.997400208e-09
1.215341404e-07
-3.081452271e-09
1.220435861e-07
-3.148614067e-09
1.225613155e-07
-3.197773422e-09
1.230854137e-07
-3.227996363e-09
-3.238551999e-09
1.236138487e-07
1.093433928e-07
5.255413637e-11
1.093834739e-07
1.604237284e-10
1.094492844e-07
2.676815995e-10
1.095392608e-07
3.71485667e-10
1.096513743e-07
4.692910385e-10
1.097832917e-07
5.589746669e-10
1.099325089e-07
6.387589161e-10
1.100964623e-07
7.071749526e-10
1.102726272e-07
7.630753216e-10
1.104586058e-07
8.056346423e-10
1.106521987e-07
8.343219612e-10
1.108514598e-07
8.488608309e-10
1.110547315e-07
8.491901106e-10
1.112606639e-07
8.354268057e-10
1.114682212e-07
8.078296192e-10
1.116766773e-07
7.667630732e-10
1.118856027e-07
7.126645153e-10
1.120948459e-07
6.460166875e-10
1.123045095e-07
5.67326892e-10
1.12514924e-07
4.771136559e-10
1.127266214e-07
3.758955652e-10
1.129403047e-07
2.641926806e-10
1.131568219e-07
1.425215394e-10
1.133772048e-07
1.133216345e-11
1.13602444e-07
-1.286975555e-10
1.138337304e-07
-2.771799944e-10
1.140722617e-07
-4.334882116e-10
1.143192802e-07
-5.970304176e-10
1.145760406e-07
-7.671532529e-10
1.148437933e-07
-9.431360128e-10
1.151237636e-07
-1.124184012e-09
1.154171313e-07
-1.309418086e-09
1.157250133e-07
-1.497860057e-09
1.160484402e-07
-1.688426752e-09
1.163883333e-07
-1.879925392e-09
1.167454814e-07
-2.071051298e-09
1.171205176e-07
-2.26038914e-09
1.175138947e-07
-2.446417951e-09
1.179258626e-07
-2.627520277e-09
1.183564455e-07
-2.801995755e-09
1.188054222e-07
-2.968079387e-09
1.192723098e-07
-3.123964711e-09
1.197563518e-07
-3.267831981e-09
1.202565134e-07
-3.397881068e-09
1.207714814e-07
-3.512368184e-09
1.212996746e-07
-3.609645231e-09
1.218392612e-07
-3.688200523e-09
1.223881871e-07
-3.746699082e-09
1.229442109e-07
-3.78402006e-09
-3.799289194e-09
1.235049477e-07
1.093414427e-07
4.111148122e-11
1.093756474e-07
1.262189088e-10
1.094318342e-07
2.114947148e-10
1.095087714e-07
2.945485593e-10
1.096048743e-07
3.731881247e-10
1.097183183e-07
4.455309004e-10
1.098471321e-07
5.099454305e-10
1.099892808e-07
5.650268317e-10
1.101427426e-07
6.096141615e-10
1.103055802e-07
6.427977496e-10
1.104760004e-07
6.639024669e-10
1.106524011e-07
6.724607721e-10
1.108334051e-07
6.681866507e-10
1.110178815e-07
6.509508371e-10
1.112049567e-07
6.207548216e-10
1.113940162e-07
5.777038068e-10
1.115846998e-07
5.21980866e-10
1.117768912e-07
4.538250365e-10
1.119707034e-07
3.735142672e-10
1.121664626e-07
2.813539903e-10
1.123646882e-07
1.77669327e-10
1.125660504e-07
6.28298659e-11
1.127714032e-07
-6.283200815e-11
1.129816581e-07
-1.989234795e-10
1.131979703e-07
-3.450104834e-10
1.134214622e-07
-5.006723862e-10
1.136533834e-07
-6.654097352e-10
1.138950195e-07
-8.386665973e-10
1.14147688e-07
-1.01982182e-09
1.144127235e-07
-1.208171619e-09
1.146914539e-07
-1.402914466e-09
1.149851752e-07
-1.603139349e-09
1.152951297e-07
-1.807814485e-09
1.156224812e-07
-2.015778197e-09
1.159682883e-07
-2.225732237e-09
1.163334754e-07
-2.436238082e-09
1.167188036e-07
-2.645716904e-09
1.171248398e-07
-2.85245376e-09
1.175519263e-07
-3.054606682e-09
1.180001518e-07
-3.250221282e-09
1.184693238e-07
-3.43725135e-09
1.18958945e-07
-3.613585777e-09
1.194681952e-07
-3.777082078e-09
1.199959208e-07
-3.925606456e-09
1.205406322e-07
-4.057079446e-09
1.211005126e-07
-4.169525529e-09
1.216734369e-07
-4.261125071e-09
1.222570043e-07
-4.330266682e-09
1.228485816e-07
-4.375596872e-09
-4.396063306e-09
1.234453564e-07
1.093398228e-07
3.128859159e-11
1.093691488e-07
9.689263238e-11
1.094173269e-07
1.633165074e-10
1.094833645e-07
2.285108619e-10
1.095660013e-07
2.905512788e-10
1.096637897e-07
3.477427237e-10
1.09775162e-07
3.985734986e-10
1.09898492e-07
4.416973857e-10
1.100321548e-07
4.759520197e-10
1.101745838e-07
5.003694679e-10
1.103243201e-07
5.141668087e-10
1.104800529e-07
5.167285154e-10
1.106406502e-07
5.075897825e-10
1.108051806e-07
4.864208809e-10
1.109729262e-07
4.53009491e-10
1.111433895e-07
4.07240708e-10
1.11316293e-07
3.49077322e-10
1.114915751e-07
2.78542904e-10
1.116693786e-07
1.957104915e-10
1.118500403e-07
1.006919395e-10
1.120341563e-07
-6.447056258e-12
1.122223102e-07
-1.253245253e-10
1.124154063e-07
-2.5592867e-10
1.126144128e-07
-3.979304414e-10
1.128204513e-07
-5.51049336e-10
1.130347202e-07
-7.149413417e-10
1.132585125e-07
-8.892020036e-10
1.134931951e-07
-1.073349088e-09
1.137401851e-07
-1.26681189e-09
1.140009306e-07
-1.468917197e-09
1.142768892e-07
-1.678873225e-09
1.145695047e-07
-1.895755043e-09
1.148801814e-07
-2.118491272e-09
1.152102553e-07
-2.345852124e-09
1.155609628e-07
-2.576439833e-09
1.15933407e-07
-2.808682353e-09
1.163285213e-07
-3.040831039e-09
1.167470307e-07
-3.270963041e-09
1.171894134e-07
-3.496989361e-09
1.176558617e-07
-3.716669697e-09
1.181462452e-07
-3.927634997e-09
1.186600779e-07
-4.127418298e-09
1.191964902e-07
-4.313494187e-09
1.197542108e-07
-4.483327159e-09
1.203315597e-07
-4.634428349e-09
1.209264534e-07
-4.764418671e-09
1.215364245e-07
-4.871095602e-09
1.221586587e-07
-4.952501029e-09
1.227900482e-07
-5.006986906e-09
-5.033274025e-09
1.234272589e-07
1.09338452e-07
2.283641503e-11
1.093636532e-07
7.169108238e-11
1.094050464e-07
1.219231597e-10
1.094618144e-07
1.717428188e-10
1.095329364e-07
2.194293199e-10
1.096172471e-07
2.634321738e-10
1.097134862e-07
3.023347478e-10
1.098203441e-07
3.348400336e-10
1.099365084e-07
3.597882049e-10
1.1006071e-07
3.761683271e-10
1.101917635e-07
3.831136009e-10
1.103286021e-07
3.798902751e-10
1.104703042e-07
3.658878162e-10
1.106161153e-07
3.406099431e-10
1.107654617e-07
3.03663244e-10
1.109179596e-07
2.547428384e-10
1.110734197e-07
1.936171714e-10
1.112318475e-07
1.201152073e-10
1.113934417e-07
3.411629284e-11
1.11558588e-07
-6.445439971e-11
1.117277719e-07
-1.756310942e-10
1.119018227e-07
-2.993754901e-10
1.120815612e-07
-4.356673391e-10
1.122680244e-07
-5.843937343e-10
1.12462365e-07
-7.453897205e-10
1.126658543e-07
-9.184303221e-10
1.128798694e-07
-1.103216842e-09
1.13105878e-07
-1.299357501e-09
1.133454193e-07
-1.506353193e-09
1.136000847e-07
-1.72358283e-09
1.138714968e-07
-1.950285626e-09
1.141612846e-07
-2.185543088e-09
1.144710551e-07
-2.42826211e-09
1.14802362e-07
-2.677159317e-09
1.151566695e-07
-2.930747494e-09
1.155353121e-07
-3.187325194e-09
1.159394515e-07
-3.444970574e-09
1.16370029e-07
-3.701540471e-09
1.168277157e-07
-3.954675967e-09
1.173128619e-07
-4.201816062e-09
1.178254478e-07
-4.440221165e-09
1.183650373e-07
-4.667007634e-09
1.189307375e-07
-4.879193885e-09
1.195211689e-07
-5.073758347e-09
1.201344495e-07
-5.247709286e-09
1.207681957e-07
-5.398164945e-09
1.21419541e-07
-5.522440432e-09
1.220851775e-07
-5.618137043e-09
1.2276142e-07
-5.683229515e-09
-5.716145481e-09
1.234442909e-07
1.0933727e-07
1.556623123e-11
1.093589211e-07
5.003979863e-11
1.093944649e-07
8.637928252e-11
1.094432137e-07
1.229941148e-10
1.095043254e-07
1.583177026e-10
1.095768481e-07
1.9090969e-10
1.096597563e-07
2.194268862e-10
1.097519859e-07
2.426107621e-10
1.098524707e-07
2.593036427e-10
1.099601791e-07
2.684600097e-10
1.10074148e-07
2.691446748e-10
1.101935118e-07
2.605263206e-10
1.103175273e-07
2.41872169e-10
1.104455927e-07
2.125442632e-10
1.105772631e-07
1.719926811e-10
1.107122602e-07
1.19745722e-10
1.108504795e-07
5.539793183e-11
1.109919966e-07
-2.14016617e-11
1.11137056e-07
-1.109428693e-10
1.112860838e-07
-2.134820975e-10
1.114396736e-07
-3.292207584e-10
1.115986118e-07
-4.583135885e-10
1.117638088e-07
-6.008641543e-10
1.119363409e-07
-7.569254935e-10
1.121174332e-07
-9.264815151e-10
1.12308445e-07
-1.109441609e-09
1.125108569e-07
-1.305628503e-09
1.127262605e-07
-1.51476088e-09
1.129563429e-07
-1.736435619e-09
1.132028692e-07
-1.970109374e-09
1.134676613e-07
-2.215078024e-09
1.137525727e-07
-2.470454911e-09
1.140594594e-07
-2.735149246e-09
1.143901452e-07
-3.007845327e-09
1.147463809e-07
-3.286983345e-09
1.151297986e-07
-3.570742931e-09
1.155418587e-07
-3.857030917e-09
1.15983793e-07
-4.143474893e-09
1.164565416e-07
-4.427424279e-09
1.169606867e-07
-4.705960856e-09
1.174963866e-07
-4.97592125e-09
1.180633124e-07
-5.23393386e-09
1.186605903e-07
-5.476471786e-09
1.192867546e-07
-5.699922164e-09
1.199397176e-07
-5.900671859e-09
1.206167609e-07
-6.075208459e-09
1.21314553e-07
-6.220233036e-09
1.220291943e-07
-6.332778963e-09
1.227562945e-07
-6.410329959e-09
-6.450929121e-09
1.234910782e-07
1.093362302e-07
9.335877534e-12
1.093547734e-07
3.149684702e-11
1.093851884e-07
5.596445453e-11
1.094268833e-07
8.129945608e-11
1.094791508e-07
1.060503338e-10
1.095412007e-07
1.28860033e-10
1.096121873e-07
1.484404207e-10
1.096912377e-07
1.63560423e-10