/*--------------------------------*- C++ -*----------------------------------*\
| =========                 |                                                 |
| \\      /  F ield         | foam-extend: Open Source CFD                    |
|  \\    /   O peration     | Version:     4.1                                |
|   \\  /    A nd           | Web:         http://www.foam-extend.org         |
|    \\/     M anipulation  |                                                 |
\*---------------------------------------------------------------------------*/
FoamFile
{
    version     2.0;
    format      ascii;
    class       volVectorField;
    location    "180000";
    object      U;
}
// * * * * * * * * * * * * * * * * * * * * * * * * * * * * * * * * * * * * * //

dimensions      [0 1 -1 0 0 0 0];

internalField   nonuniform List<vector> 
15920
(
(0.0002132404178 5.12529194e-06 0)
(0.0002058395287 1.132234062e-05 0)
(0.0001956989279 1.374901335e-05 0)
(0.000182129329 1.423933045e-05 0)
(0.0001676691262 1.379810812e-05 0)
(0.0001539729827 1.273239859e-05 0)
(0.0001413067765 1.12266081e-05 0)
(0.0001295915828 9.504884738e-06 0)
(0.0001189042673 7.765884453e-06 0)
(0.0001093683653 6.137061658e-06 0)
(0.0001010120369 4.687497752e-06 0)
(9.377615153e-05 3.449654118e-06 0)
(8.756947023e-05 2.430421529e-06 0)
(8.229401899e-05 1.61789472e-06 0)
(7.784765646e-05 9.889953401e-07 0)
(7.412605317e-05 5.161170694e-07 0)
(7.102804225e-05 1.713479589e-07 0)
(6.846003694e-05 -7.121357377e-08 0)
(6.633792847e-05 -2.342774465e-07 0)
(6.458752841e-05 -3.369362751e-07 0)
(6.314449293e-05 -3.947550656e-07 0)
(6.195393499e-05 -4.201389205e-07 0)
(6.096973884e-05 -4.228023384e-07 0)
(6.015368119e-05 -4.1024084e-07 0)
(5.947442738e-05 -3.880916163e-07 0)
(5.890653397e-05 -3.604916425e-07 0)
(5.842951886e-05 -3.30405144e-07 0)
(5.802701011e-05 -2.998927303e-07 0)
(5.768597873e-05 -2.703248187e-07 0)
(5.739606338e-05 -2.425498554e-07 0)
(5.714898998e-05 -2.170256878e-07 0)
(5.693808233e-05 -1.939180082e-07 0)
(5.675779913e-05 -1.731640394e-07 0)
(5.660357211e-05 -1.544625596e-07 0)
(5.647156527e-05 -1.374575073e-07 0)
(5.635836585e-05 -1.218807526e-07 0)
(5.626080049e-05 -1.075059752e-07 0)
(5.617583936e-05 -9.409754742e-08 0)
(5.610053421e-05 -8.140351521e-08 0)
(5.603197314e-05 -6.916217277e-08 0)
(5.596725583e-05 -5.710776163e-08 0)
(5.590353414e-05 -4.498742537e-08 0)
(5.583808901e-05 -3.263861633e-08 0)
(5.576805678e-05 -2.012899226e-08 0)
(5.569051201e-05 -7.45703971e-09 0)
(5.560256075e-05 5.492301404e-09 0)
(5.550139913e-05 1.880704112e-08 0)
(5.538432094e-05 3.250735667e-08 0)
(5.524872935e-05 4.657174616e-08 0)
(5.509215699e-05 6.095084119e-08 0)
(0.0002201188699 5.65539337e-06 0)
(0.0002251697666 1.29743654e-05 0)
(0.0002303399896 1.666173615e-05 0)
(0.0002340134956 1.86236958e-05 0)
(0.0002359086003 1.976289644e-05 0)
(0.000236248882 2.020142145e-05 0)
(0.000235212457 1.998325664e-05 0)
(0.0002329594675 1.925003463e-05 0)
(0.0002297193318 1.815868212e-05 0)
(0.0002257548008 1.683120623e-05 0)
(0.0002213038421 1.536269872e-05 0)
(0.0002165616639 1.38337354e-05 0)
(0.0002116868498 1.231093536e-05 0)
(0.0002068075703 1.084494508e-05 0)
(0.0002020232323 9.470964049e-06 0)
(0.000197406181 8.211018583e-06 0)
(0.00019300559 7.07643214e-06 0)
(0.0001888522079 6.070134067e-06 0)
(0.0001849625937 5.188847996e-06 0)
(0.0001813425932 4.425072415e-06 0)
(0.000177990224 3.76873008e-06 0)
(0.0001748980443 3.208453666e-06 0)
(0.0001720550104 2.73254557e-06 0)
(0.0001694479554 2.329656229e-06 0)
(0.0001670625912 1.989171681e-06 0)
(0.0001648841848 1.70146269e-06 0)
(0.0001628980433 1.458029021e-06 0)
(0.0001610898516 1.251542428e-06 0)
(0.0001594458825 1.075811286e-06 0)
(0.0001579531105 9.256967806e-07 0)
(0.0001565992567 7.970038819e-07 0)
(0.0001553727928 6.86363061e-07 0)
(0.0001542629179 5.911075638e-07 0)
(0.0001532595091 5.091797336e-07 0)
(0.0001523529417 4.39007141e-07 0)
(0.0001515340514 3.793768774e-07 0)
(0.000150794162 3.293626635e-07 0)
(0.0001501250204 2.882724012e-07 0)
(0.0001495187152 2.555968863e-07 0)
(0.0001489676195 2.309629547e-07 0)
(0.0001484643463 2.140936294e-07 0)
(0.0001480017062 2.047803045e-07 0)
(0.0001475726132 2.028726918e-07 0)
(0.0001471700607 2.082027049e-07 0)
(0.000146787335 2.205917806e-07 0)
(0.0001464178987 2.398606809e-07 0)
(0.0001460552972 2.658067306e-07 0)
(0.0001456931869 2.981920705e-07 0)
(0.0001453253728 3.367470059e-07 0)
(0.0001449458249 3.811698727e-07 0)
(0.0002187778678 1.482500154e-06 0)
(0.0002200322627 4.437319984e-06 0)
(0.0002226065467 7.101743945e-06 0)
(0.000225938094 9.490994343e-06 0)
(0.0002294945215 1.162652061e-05 0)
(0.0002330426302 1.339124445e-05 0)
(0.0002364116903 1.468726809e-05 0)
(0.0002394061714 1.550858494e-05 0)
(0.0002418749544 1.589911338e-05 0)
(0.0002437475406 1.591530713e-05 0)
(0.0002450147086 1.56195558e-05 0)
(0.0002457034036 1.507984855e-05 0)
(0.0002458642834 1.436413192e-05 0)
(0.0002455637051 1.353384e-05 0)
(0.0002448750249 1.264038119e-05 0)
(0.0002438712896 1.172444722e-05 0)
(0.0002426208236 1.081667079e-05 0)
(0.0002411851019 9.938781396e-06 0)
(0.0002396178424 9.105021938e-06 0)
(0.0002379647905 8.323675753e-06 0)
(0.0002362640192 7.598526263e-06 0)
(0.0002345465889 6.930129229e-06 0)
(0.0002328373811 6.316859753e-06 0)
(0.0002311559301 5.755741289e-06 0)
(0.0002295172341 5.243038969e-06 0)
(0.0002279325814 4.774708747e-06 0)
(0.0002264102504 4.346724913e-06 0)
(0.0002249560732 3.95529383e-06 0)
(0.0002235739003 3.596976203e-06 0)
(0.000222265986 3.268744666e-06 0)
(0.0002210333007 2.967997662e-06 0)
(0.0002198757793 2.692543664e-06 0)
(0.0002187925129 2.440563671e-06 0)
(0.0002177818885 2.210548015e-06 0)
(0.0002168416963 2.001277794e-06 0)
(0.0002159692408 1.811811007e-06 0)
(0.0002151614299 1.641428898e-06 0)
(0.0002144148218 1.489579039e-06 0)
(0.0002137256534 1.355831623e-06 0)
(0.0002130898697 1.239844048e-06 0)
(0.000212503149 1.141329568e-06 0)
(0.0002119609233 1.060033071e-06 0)
(0.0002114584023 9.957236111e-07 0)
(0.0002109906189 9.482262538e-07 0)
(0.0002105524703 9.173552022e-07 0)
(0.000210138704 9.028672039e-07 0)
(0.0002097439168 9.044654861e-07 0)
(0.0002093625898 9.218039469e-07 0)
(0.0002089891231 9.544802339e-07 0)
(0.0002086178617 1.002030281e-06 0)
(0.0002187698904 1.503443222e-06 0)
(0.000219491623 4.376942866e-06 0)
(0.0002207578384 6.817123473e-06 0)
(0.0002223849153 8.711571097e-06 0)
(0.0002242152543 1.015501074e-05 0)
(0.0002262167508 1.125077256e-05 0)
(0.000228384818 1.204626834e-05 0)
(0.0002306629597 1.25736278e-05 0)
(0.0002329632413 1.286936709e-05 0)
(0.0002352057819 1.296774697e-05 0)
(0.0002373283554 1.289735186e-05 0)
(0.0002392819977 1.26845112e-05 0)
(0.0002410304376 1.235560859e-05 0)
(0.0002425520362 1.193623786e-05 0)
(0.0002438393187 1.144996641e-05 0)
(0.0002448962021 1.091777701e-05 0)
(0.0002457348092 1.035785488e-05 0)
(0.0002463727403 9.78541859e-06 0)
(0.0002468308246 9.212656265e-06 0)
(0.0002471312768 8.648859356e-06 0)
(0.0002472962937 8.100725443e-06 0)
(0.000247347099 7.572748662e-06 0)
(0.0002473033642 7.067632739e-06 0)
(0.0002471829037 6.586694582e-06 0)
(0.0002470015824 6.130271548e-06 0)
(0.0002467733666 5.698049662e-06 0)
(0.0002465104387 5.289314102e-06 0)
(0.0002462233382 4.903143379e-06 0)
(0.0002459211215 4.538556406e-06 0)
(0.0002456115255 4.194617349e-06 0)
(0.0002453011223 3.87050378e-06 0)
(0.0002449954559 3.565544911e-06 0)
(0.0002446991583 3.279237321e-06 0)
(0.0002444160463 3.011245848e-06 0)
(0.0002441492018 2.76140236e-06 0)
(0.0002439010414 2.529691895e-06 0)
(0.0002436733748 2.316221156e-06 0)
(0.00024346745 2.12118525e-06 0)
(0.0002432839892 1.944841648e-06 0)
(0.0002431232179 1.787488011e-06 0)
(0.0002429848933 1.649441559e-06 0)
(0.0002428683283 1.531022152e-06 0)
(0.0002427724187 1.432539253e-06 0)
(0.000242695672 1.354280897e-06 0)
(0.0002426362313 1.29647164e-06 0)
(0.0002425918934 1.25925758e-06 0)
(0.0002425601259 1.242711174e-06 0)
(0.0002425380876 1.246820087e-06 0)
(0.0002425226586 1.271476184e-06 0)
(0.000242510472 1.316471374e-06 0)
(0.0002187108352 1.054414042e-06 0)
(0.0002191119397 3.069810082e-06 0)
(0.0002199167787 4.868085176e-06 0)
(0.0002210428399 6.390561369e-06 0)
(0.0002223557104 7.649195612e-06 0)
(0.0002237733263 8.668241916e-06 0)
(0.0002252613774 9.454916404e-06 0)
(0.0002267921628 1.001577705e-05 0)
(0.0002283333306 1.037062188e-05 0)
(0.0002298574406 1.054751917e-05 0)
(0.0002313455782 1.057463397e-05 0)
(0.0002327832736 1.047790497e-05 0)
(0.000234157692 1.028151036e-05 0)
(0.0002354582017 1.000768367e-05 0)
(0.0002366774594 9.676076957e-06 0)
(0.000237811475 9.303474355e-06 0)
(0.0002388591096 8.903860325e-06 0)
(0.0002398215856 8.488598305e-06 0)
(0.0002407020641 8.066633432e-06 0)
(0.0002415051925 7.644745897e-06 0)
(0.0002422366337 7.227859129e-06 0)
(0.0002429026429 6.819370081e-06 0)
(0.0002435097303 6.421470087e-06 0)
(0.0002440644097 6.035441383e-06 0)
(0.0002445730197 5.66192367e-06 0)
(0.0002450416087 5.301130509e-06 0)
(0.0002454758677 4.953018842e-06 0)
(0.0002458810965 4.617423567e-06 0)
(0.0002462621953 4.294161705e-06 0)
(0.0002466236726 3.983106777e-06 0)
(0.0002469696612 3.684236691e-06 0)
(0.0002473039364 3.397660275e-06 0)
(0.0002476299332 3.123627897e-06 0)
(0.0002479507595 2.862530389e-06 0)
(0.000248269205 2.614889342e-06 0)
(0.0002485877483 2.381341811e-06 0)
(0.0002489085615 2.162619706e-06 0)
(0.0002492335137 1.959525805e-06 0)
(0.0002495641698 1.772909984e-06 0)
(0.0002499017866 1.603644416e-06 0)
(0.000250247309 1.452603646e-06 0)
(0.0002506013693 1.320645153e-06 0)
(0.0002509642912 1.208574806e-06 0)
(0.0002513360777 1.117169104e-06 0)
(0.0002517164194 1.04713965e-06 0)
(0.0002521047223 9.990965356e-07 0)
(0.0002525000994 9.73558112e-07 0)
(0.0002529013691 9.709307498e-07 0)
(0.0002533070821 9.914944362e-07 0)
(0.0002537155422 1.035398436e-06 0)
(0.0002186951892 8.138833375e-07 0)
(0.0002189772886 2.411006703e-06 0)
(0.0002195614815 3.902125048e-06 0)
(0.0002204080216 5.222796566e-06 0)
(0.0002214245941 6.346036352e-06 0)
(0.0002225410681 7.269491492e-06 0)
(0.0002237191289 7.996630938e-06 0)
(0.0002249307052 8.533983935e-06 0)
(0.0002261471892 8.895056692e-06 0)
(0.0002273434224 9.099327556e-06 0)
(0.000228502094 9.168222154e-06 0)
(0.0002296128419 9.122841743e-06 0)
(0.0002306696607 8.983519469e-06 0)
(0.0002316696016 8.769479556e-06 0)
(0.0002326123629 8.498178862e-06 0)
(0.0002334997666 8.184802781e-06 0)
(0.0002343350559 7.842124401e-06 0)
(0.0002351223197 7.480596243e-06 0)
(0.0002358661237 7.108533195e-06 0)
(0.0002365712528 6.732343561e-06 0)
(0.0002372425011 6.356797636e-06 0)
(0.0002378845076 5.985311935e-06 0)
(0.0002385016469 5.620224116e-06 0)
(0.0002390979666 5.263043671e-06 0)
(0.0002396771599 4.914672592e-06 0)
(0.0002402425634 4.575593427e-06 0)
(0.0002407971745 4.246024176e-06 0)
(0.0002413436794 3.926042703e-06 0)
(0.0002418844847 3.615683873e-06 0)
(0.0002424217505 3.315011481e-06 0)
(0.0002429574214 3.024168238e-06 0)
(0.0002434932543 2.743408004e-06 0)
(0.0002440308397 2.473113769e-06 0)
(0.0002445716171 2.213804042e-06 0)
(0.0002451168836 1.966129323e-06 0)
(0.0002456678002 1.730864274e-06 0)
(0.000246225391 1.508888249e-06 0)
(0.000246790539 1.301169982e-06 0)
(0.0002473639776 1.108751848e-06 0)
(0.0002479462838 9.327181306e-07 0)
(0.0002485378665 7.741688869e-07 0)
(0.0002491389476 6.342056171e-07 0)
(0.00024974961 5.139286516e-07 0)
(0.000250369634 4.143621507e-07 0)
(0.0002509985545 3.364568524e-07 0)
(0.0002516358844 2.810938652e-07 0)
(0.0002522809946 2.490342892e-07 0)
(0.0002529330448 2.409233284e-07 0)
(0.0002535910054 2.57288665e-07 0)
(0.0002542536841 2.985240015e-07 0)
(0.0002186866221 6.467135701e-07 0)
(0.0002188965187 1.922836656e-06 0)
(0.0002193311097 3.131194109e-06 0)
(0.000219971236 4.221776376e-06 0)
(0.0002207598671 5.167919671e-06 0)
(0.0002216486871 5.963077272e-06 0)
(0.0002226065516 6.608442429e-06 0)
(0.0002236086945 7.107528615e-06 0)
(0.0002246302944 7.467242526e-06 0)
(0.0002256483774 7.698594039e-06 0)
(0.0002266450542 7.81518389e-06 0)
(0.0002276079352 7.831503916e-06 0)
(0.0002285288843 7.762129679e-06 0)
(0.00022940306 7.621316312e-06 0)
(0.0002302284996 7.42253802e-06 0)
(0.0002310057141 7.178054477e-06 0)
(0.0002317371073 6.898664313e-06 0)
(0.0002324263825 6.593632903e-06 0)
(0.000233078063 6.270716064e-06 0)
(0.0002336971233 5.936240363e-06 0)
(0.0002342886947 5.59523078e-06 0)
(0.0002348578357 5.251573751e-06 0)
(0.0002354093693 4.908196858e-06 0)
(0.00023594778 4.567249108e-06 0)
(0.0002364771576 4.230272201e-06 0)
(0.0002370011763 3.898356731e-06 0)
(0.0002375230977 3.572278754e-06 0)
(0.0002380457898 3.252614818e-06 0)
(0.0002385717563 2.939835758e-06 0)
(0.0002391031686 2.634381182e-06 0)
(0.0002396419004 2.336715478e-06 0)
(0.0002401895606 2.047368459e-06 0)
(0.0002407475222 1.766963385e-06 0)
(0.000241316944 1.496234333e-06 0)
(0.00024189879 1.236021788e-06 0)
(0.0002424938397 9.872917752e-07 0)
(0.0002431027005 7.511063219e-07 0)
(0.0002437258189 5.286032119e-07 0)
(0.0002443635079 3.209897482e-07 0)
(0.0002450158863 1.295352478e-07 0)
(0.0002456828825 -4.445440729e-08 0)
(0.0002463642734 -1.996698135e-07 0)
(0.0002470596195 -3.348067217e-07 0)
(0.0002477684263 -4.486281249e-07 0)
(0.0002484900767 -5.399714654e-07 0)
(0.0002492236182 -6.077595281e-07 0)
(0.0002499678932 -6.510431212e-07 0)
(0.0002507216207 -6.689979204e-07 0)
(0.0002514833951 -6.609298453e-07 0)
(0.0002522516888 -6.262956907e-07 0)
(0.0002186802768 5.198123375e-07 0)
(0.000218840073 1.54820742e-06 0)
(0.0002191729241 2.531921147e-06 0)
(0.0002196701467 3.4361949e-06 0)
(0.0002202946756 4.238710637e-06 0)
(0.0002210121759 4.929439236e-06 0)
(0.0002217977367 5.50474116e-06 0)
(0.0002226306069 5.964087675e-06 0)
(0.0002234907465 6.310151428e-06 0)
(0.0002243596576 6.549140576e-06 0)
(0.000225222144 6.68991622e-06 0)
(0.000226066751 6.74269817e-06 0)
(0.000226885207 6.718210251e-06 0)
(0.0002276718607 6.627227124e-06 0)
(0.0002284233954 6.480210536e-06 0)
(0.0002291385864 6.286963221e-06 0)
(0.0002298179499 6.056377567e-06 0)
(0.0002304633408 5.796307963e-06 0)
(0.0002310775887 5.513534298e-06 0)
(0.0002316641949 5.213783411e-06 0)
(0.0002322270774 4.901793866e-06 0)
(0.0002327703562 4.581414087e-06 0)
(0.0002332981823 4.255721077e-06 0)
(0.0002338146102 3.927147038e-06 0)
(0.0002343235086 3.597604968e-06 0)
(0.0002348285015 3.268607175e-06 0)
(0.0002353329334 2.941372695e-06 0)
(0.0002358398527 2.616921436e-06 0)
(0.0002363520081 2.296154032e-06 0)
(0.0002368718531 1.979918234e-06 0)
(0.000237401556 1.669058656e-06 0)
(0.0002379430144 1.364457361e-06 0)
(0.0002384978716 1.067061536e-06 0)
(0.0002390675146 7.779270253e-07 0)
(0.0002396530974 4.981675318e-07 0)
(0.0002402555961 2.289952346e-07 0)
(0.0002408757178 -2.827186751e-08 0)
(0.0002415139296 -2.722251621e-07 0)
(0.0002421704666 -5.013992322e-07 0)
(0.0002428453655 -7.142814941e-07 0)
(0.0002435384635 -9.093288407e-07 0)
(0.0002442493746 -1.085001287e-06 0)
(0.0002449774898 -1.239803891e-06 0)
(0.0002457219995 -1.372266136e-06 0)
(0.0002464819004 -1.480983077e-06 0)
(0.0002472559826 -1.564660419e-06 0)
(0.0002480428537 -1.622117039e-06 0)
(0.0002488409642 -1.652319593e-06 0)
(0.0002496486135 -1.654409196e-06 0)
(0.0002504639692 -1.627713669e-06 0)
(0.0002186759771 4.217413743e-07 0)
(0.0002188017673 1.258708309e-06 0)
(0.0002190645679 2.06596098e-06 0)
(0.00021946019 2.818039057e-06 0)
(0.0002199628931 3.49623861e-06 0)
(0.0002205479921 4.089673719e-06 0)
(0.0002211965957 4.592707424e-06 0)
(0.0002218922978 5.003050167e-06 0)
(0.0002226191663 5.321323032e-06 0)
(0.0002233623389 5.550928332e-06 0)
(0.0002241091552 5.69746437e-06 0)
(0.0002248495599 5.767896342e-06 0)
(0.0002255758969 5.769899753e-06 0)
(0.0002262826016 5.711443782e-06 0)
(0.0002269659937 5.600475443e-06 0)
(0.000227624096 5.444635047e-06 0)
(0.000228256399 5.251030779e-06 0)
(0.0002288635862 5.026099588e-06 0)
(0.000229447269 4.775543826e-06 0)
(0.000230009756 4.504320391e-06 0)
(0.0002305538513 4.216667024e-06 0)
(0.00023108268 3.916156812e-06 0)
(0.0002315995413 3.605772397e-06 0)
(0.0002321077905 3.287991066e-06 0)
(0.0002326107491 2.964873673e-06 0)
(0.0002331116376 2.638152192e-06 0)
(0.0002336135268 2.309312012e-06 0)
(0.0002341193053 1.979667537e-06 0)
(0.0002346316583 1.650429104e-06 0)
(0.0002351530501 1.322766243e-06 0)
(0.0002356857176 9.978298605e-07 0)
(0.0002362316678 6.768174393e-07 0)
(0.0002367927079 3.609853225e-07 0)
(0.0002373703896 5.164535204e-08 0)
(0.0002379659898 -2.497555225e-07 0)
(0.0002385805505 -5.417054297e-07 0)
(0.0002392148947 -8.225928062e-07 0)
(0.0002398696145 -1.09070799e-06 0)
(0.0002405450397 -1.344277388e-06 0)
(0.0002412412481 -1.5814911e-06 0)
(0.0002419580602 -1.800518893e-06 0)
(0.0002426950367 -1.999527416e-06 0)
(0.0002434514818 -2.176707226e-06 0)
(0.0002442264441 -2.330299165e-06 0)
(0.0002450187269 -2.458633341e-06 0)
(0.0002458269022 -2.560156036e-06 0)
(0.0002466493251 -2.633454705e-06 0)
(0.0002474841556 -2.677294145e-06 0)
(0.000248329384 -2.690642235e-06 0)
(0.000249182859 -2.67268548e-06 0)
(0.0002186728904 3.439265384e-07 0)
(0.0002187741734 1.028320041e-06 0)
(0.0002189859738 1.692376462e-06 0)
(0.0002193062935 2.316901977e-06 0)
(0.0002197166119 2.886821048e-06 0)
(0.0002201990749 3.392253361e-06 0)
(0.0002207396531 3.827204733e-06 0)
(0.0002213255818 4.188444384e-06 0)
(0.0002219441216 4.47510415e-06 0)
(0.0002225831981 4.688494399e-06 0)
(0.0002232322809 4.831739324e-06 0)
(0.0002238827145 4.909260967e-06 0)
(0.0002245276513 4.926302824e-06 0)
(0.0002251618968 4.888571779e-06 0)
(0.0002257817845 4.801959091e-06 0)
(0.0002263850509 4.672300408e-06 0)
(0.0002269706723 4.505178961e-06 0)
(0.000227538672 4.305787615e-06 0)
(0.000228089925 4.078848777e-06 0)
(0.000228625978 3.828579474e-06 0)
(0.000229148888 3.558689623e-06 0)
(0.0002296610792 3.272405819e-06 0)
(0.000230165219 2.97251422e-06 0)
(0.0002306641147 2.661416182e-06 0)
(0.0002311606294 2.341191335e-06 0)
(0.0002316576161 2.013663101e-06 0)
(0.0002321578658 1.680461388e-06 0)
(0.0002326640697 1.343084785e-06 0)
(0.000233178797 1.00294267e-06 0)
(0.0002337044385 6.614830481e-07 0)
(0.000234243217 3.20084651e-07 0)
(0.0002347971971 -1.981297085e-08 0)
(0.0002353681857 -3.566663103e-07 0)
(0.0002359577999 -6.888750364e-07 0)
(0.0002365674626 -1.014695574e-06 0)
(0.0002371983173 -1.332282248e-06 0)
(0.0002378512762 -1.639702358e-06 0)
(0.0002385269825 -1.934944398e-06 0)
(0.0002392258022 -2.215918364e-06 0)
(0.0002399478238 -2.480475958e-06 0)
(0.0002406928476 -2.726437309e-06 0)
(0.0002414603759 -2.951617682e-06 0)
(0.0002422496107 -3.153860635e-06 0)
(0.0002430594569 -3.331072627e-06 0)
(0.000243888533 -3.481257705e-06 0)
(0.0002447351836 -3.602555719e-06 0)
(0.0002455974963 -3.693278272e-06 0)
(0.0002464733272 -3.751942715e-06 0)
(0.000247360334 -3.777303436e-06 0)
(0.0002482560117 -3.7683776e-06 0)
(0.0002186705744 2.808281849e-07 0)
(0.0002187535276 8.412093943e-07 0)
(0.0002189271062 1.387734082e-06 0)
(0.0002191904994 1.905678839e-06 0)
(0.0002195299375 2.382951413e-06 0)
(0.0002199322167 2.810928707e-06 0)
(0.0002203868579 3.183714277e-06 0)
(0.000220883972 3.497535672e-06 0)
(0.0002214134176 3.75053538e-06 0)
(0.0002219654364 3.942635999e-06 0)
(0.0002225313679 4.075281068e-06 0)
(0.000223103907 4.151079651e-06 0)
(0.0002236770885 4.173458468e-06 0)
(0.0002242462244 4.146375414e-06 0)
(0.000224807849 4.07408631e-06 0)
(0.0002253596467 3.960945318e-06 0)
(0.0002259003435 3.811237787e-06 0)
(0.0002264295743 3.629054236e-06 0)
(0.0002269477419 3.418207784e-06 0)
(0.0002274558809 3.182188858e-06 0)
(0.0002279555306 2.924148708e-06 0)
(0.0002284486191 2.646905187e-06 0)
(0.0002289373597 2.352965788e-06 0)
(0.0002294241608 2.044562637e-06 0)
(0.0002299115507 1.723696878e-06 0)
(0.0002304021111 1.392188988e-06 0)
(0.000230898427 1.051724598e-06 0)
(0.0002314030292 7.0391282e-07 0)
(0.000231918455 3.50334626e-07 0)
(0.0002324470581 -7.506046727e-09 0)
(0.0002329909824 -3.679619607e-07 0)
(0.0002335523455 -7.293401656e-07 0)
(0.0002341330713 -1.089868352e-06 0)
(0.0002347348566 -1.447635651e-06 0)
(0.0002353591878 -1.800644841e-06 0)
(0.0002360073052 -2.146761386e-06 0)
(0.0002366801929 -2.483732711e-06 0)
(0.0002373785611 -2.80919772e-06 0)
(0.0002381028238 -3.120697986e-06 0)
(0.0002388530821 -3.415702879e-06 0)
(0.0002396291096 -3.691640118e-06 0)
(0.0002404303416 -3.945928044e-06 0)
(0.0002412558689 -4.176012158e-06 0)
(0.0002421044381 -4.37940534e-06 0)
(0.0002429744588 -4.553731676e-06 0)
(0.0002438640177 -4.696773132e-06 0)
(0.0002447709003 -4.806513763e-06 0)
(0.000245692619 -4.881181157e-06 0)
(0.0002466264502 -4.919285299e-06 0)
(0.0002475694785 -4.919651836e-06 0)
(0.0002186687982 2.288346957e-07 0)
(0.0002187377158 6.869173474e-07 0)
(0.0002188819688 1.135850912e-06 0)
(0.0002191013777 1.564079998e-06 0)
(0.000219385389 1.961768344e-06 0)
(0.0002197240159 2.321458057e-06 0)
(0.0002201093749 2.637619161e-06 0)
(0.0002205338386 2.906330645e-06 0)
(0.0002209893799 3.125197176e-06 0)
(0.000221468144 3.293261086e-06 0)
(0.0002219630458 3.410810664e-06 0)
(0.0002224679823 3.47912992e-06 0)
(0.0002229778431 3.500253605e-06 0)
(0.0002234885 3.476754305e-06 0)
(0.0002239967987 3.411558426e-06 0)
(0.000224500525 3.307783874e-06 0)
(0.0002249983378 3.168600947e-06 0)
(0.0002254896782 2.99712282e-06 0)
(0.0002259746714 2.79632866e-06 0)
(0.0002264540257 2.569016181e-06 0)
(0.000226928935 2.317778072e-06 0)
(0.0002274009868 2.044997298e-06 0)
(0.0002278720759 1.752857786e-06 0)
(0.0002283443283 1.443364655e-06 0)
(0.0002288200367 1.118379865e-06 0)
(0.0002293015958 7.796458759e-07 0)
(0.0002297914598 4.28838308e-07 0)
(0.0002302921171 6.759493944e-08 0)
(0.0002308059246 -3.024240038e-07 0)
(0.0002313352563 -6.795854649e-07 0)
(0.0002318824715 -1.062077472e-06 0)
(0.0002324496773 -1.44800384e-06 0)
(0.0002330388476 -1.835377041e-06 0)
(0.0002336517989 -2.222056586e-06 0)
(0.0002342901334 -2.60575227e-06 0)
(0.0002349552112 -2.98401656e-06 0)
(0.0002356481261 -3.354249176e-06 0)
(0.0002363696769 -3.713711223e-06 0)
(0.0002371203387 -4.059544567e-06 0)
(0.0002379002386 -4.388797155e-06 0)
(0.0002387091352 -4.698455212e-06 0)
(0.0002395464024 -4.985481601e-06 0)
(0.0002404110175 -5.24686005e-06 0)
(0.0002413015568 -5.479644559e-06 0)
(0.0002422161996 -5.681012872e-06 0)
(0.0002431527421 -5.848322782e-06 0)
(0.0002441086224 -5.979168544e-06 0)
(0.000245080954 -6.071434427e-06 0)
(0.0002460665697 -6.123343073e-06 0)
(0.0002470620748 -6.133496783e-06 0)
(0.0002186674058 1.854250805e-07 0)
(0.0002187253279 5.580447686e-07 0)
(0.0002188465662 9.250472737e-07 0)
(0.0002190312716 1.277167299e-06 0)
(0.0002192711576 1.606283289e-06 0)
(0.0002195585251 1.905952352e-06 0)
(0.0002198873889 2.171108309e-06 0)
(0.0002202518555 2.397881775e-06 0)
(0.0002206455706 2.583587148e-06 0)
(0.0002210622137 2.72668005e-06 0)
(0.0002214960041 2.826626271e-06 0)
(0.0002219418824 2.883728885e-06 0)
(0.0002223955321 2.89895874e-06 0)
(0.0002228533948 2.873800594e-06 0)
(0.0002233126875 2.810111908e-06 0)
(0.0002237713962 2.709992862e-06 0)
(0.000224228237 2.575672156e-06 0)
(0.0002246825985 2.409414495e-06 0)
(0.0002251344732 2.213452909e-06 0)
(0.0002255843858 1.989944085e-06 0)
(0.0002260333198 1.740942486e-06 0)
(0.0002264826468 1.468390014e-06 0)
(0.0002269340547 1.174120993e-06 0)
(0.0002273894907 8.598618898e-07 0)
(0.0002278510886 5.27301595e-07 0)
(0.0002283211263 1.780602027e-07 0)
(0.0002288019852 -1.862766695e-07 0)
(0.000229296087 -5.640956613e-07 0)
(0.0002298058672 -9.53726757e-07 0)
(0.000230333758 -1.353340271e-06 0)
(0.0002308821267 -1.761078055e-06 0)
(0.0002314532134 -2.174922814e-06 0)
(0.0002320491378 -2.592672882e-06 0)
(0.0002326718622 -3.011944828e-06 0)
(0.0002333231435 -3.430163913e-06 0)
(0.0002340044968 -3.844559437e-06 0)
(0.0002347171593 -4.252169824e-06 0)
(0.0002354620525 -4.649856307e-06 0)
(0.0002362397466 -5.03432324e-06 0)
(0.0002370504267 -5.402146215e-06 0)
(0.0002378938614 -5.749809256e-06 0)
(0.0002387693776 -6.073750671e-06 0)
(0.000239675842 -6.370416845e-06 0)
(0.0002406116516 -6.636322899e-06 0)
(0.0002415747335 -6.868118551e-06 0)
(0.0002425625578 -7.062657646e-06 0)
(0.000243572163 -7.217069056e-06 0)
(0.0002446001968 -7.32882523e-06 0)
(0.0002456429687 -7.395804638e-06 0)
(0.0002466965151 -7.416345296e-06 0)
(0.0002186662914 1.487945433e-07 0)
(0.0002187154196 4.492863245e-07 0)
(0.0002188182287 7.4690277e-07 0)
(0.0002189750314 1.034065989e-06 0)
(0.0002191791889 1.303957249e-06 0)
(0.0002194246588 1.550965929e-06 0)
(0.0002197068442 1.770471706e-06 0)
(0.0002200211662 1.95873696e-06 0)
(0.0002203625826 2.112932103e-06 0)
(0.0002207260071 2.231127657e-06 0)
(0.0002211067371 2.312209353e-06 0)
(0.0002215006069 2.355759037e-06 0)
(0.0002219040131 2.361937574e-06 0)
(0.0002223139412 2.33137579e-06 0)
(0.0002227279967 2.265069218e-06 0)
(0.0002231444163 2.16427661e-06 0)
(0.0002235620503 2.030428098e-06 0)
(0.0002239803275 1.865049248e-06 0)
(0.000224399211 1.669703981e-06 0)
(0.000224819147 1.445956523e-06 0)
(0.0002252410111 1.195347103e-06 0)
(0.0002256660567 9.193875138e-07 0)
(0.0002260958433 6.195409918e-07 0)
(0.0002265322415 2.9725575e-07 0)
(0.0002269773375 -4.606417585e-08 0)
(0.0002274333113 -4.089713908e-07 0)
(0.0002279025117 -7.899613188e-07 0)
(0.0002283874248 -1.187461062e-06 0)
(0.0002288905669 -1.599807025e-06 0)
(0.000229414445 -2.025195344e-06 0)
(0.0002299615393 -2.461672723e-06 0)
(0.0002305342655 -2.907085328e-06 0)
(0.0002311349319 -3.359057421e-06 0)
(0.0002317656968 -3.814981839e-06 0)
(0.0002324285229 -4.27200847e-06 0)
(0.0002331251318 -4.727039471e-06 0)
(0.0002338569572 -5.176733351e-06 0)
(0.0002346250973 -5.617517919e-06 0)
(0.0002354302667 -6.045612749e-06 0)
(0.0002362727513 -6.457061741e-06 0)
(0.0002371523649 -6.847776134e-06 0)
(0.0002380684127 -7.21358817e-06 0)
(0.0002390196625 -7.55031551e-06 0)
(0.0002400043274 -7.853835533e-06 0)
(0.0002410200607 -8.120167354e-06 0)
(0.0002420639651 -8.345559015e-06 0)
(0.0002431326203 -8.526577045e-06 0)
(0.0002442221289 -8.660194349e-06 0)
(0.0002453281792 -8.74387133e-06 0)
(0.0002464461241 -8.775626044e-06 0)
(0.0002186653822 1.17627436e-07 0)
(0.0002187073409 3.56765473e-07 0)
(0.0002187951102 5.952217687e-07 0)
(0.0002189290651 8.266768626e-07 0)
(0.0002191037939 1.045301057e-06 0)
(0.0002193144769 1.246147003e-06 0)
(0.0002195575409 1.42498607e-06 0)
(0.0002198294033 1.578239495e-06 0)
(0.000220126049 1.703020686e-06 0)
(0.0002204433807 1.797148021e-06 0)
(0.0002207775792 1.859091841e-06 0)
(0.0002211252323 1.887893534e-06 0)
(0.0002214833601 1.883086403e-06 0)
(0.0002218494457 1.844621029e-06 0)
(0.0002222214741 1.77278944e-06 0)
(0.0002225979529 1.668147987e-06 0)
(0.0002229779095 1.531444802e-06 0)
(0.0002233608731 1.36355901e-06 0)
(0.0002237468479 1.165453338e-06 0)
(0.0002241362794 9.381445699e-07 0)
(0.0002245300245 6.826691676e-07 0)
(0.0002249292869 4.001364815e-07 0)
(0.0002253355981 9.163707854e-08 0)
(0.0002257507489 -2.417121914e-07 0)
(0.0002261767762 -5.987703526e-07 0)
(0.0002266159801 -9.782936446e-07 0)
(0.0002270707848 -1.378923547e-06 0)
(0.0002275437011 -1.799203027e-06 0)
(0.0002280373372 -2.237536252e-06 0)
(0.0002285543624 -2.692136684e-06 0)
(0.0002290974506 -3.160997622e-06 0)
(0.0002296692352 -3.64186742e-06 0)
(0.0002302722657 -4.132223612e-06 0)
(0.0002309089608 -4.629252741e-06 0)
(0.0002315815555 -5.129835735e-06 0)
(0.0002322920466 -5.63054095e-06 0)
(0.0002330421345 -6.127626325e-06 0)
(0.0002338331625 -6.617051572e-06 0)
(0.0002346660553 -7.094501621e-06 0)
(0.0002355412595 -7.55542235e-06 0)
(0.0002364586857 -7.995069449e-06 0)
(0.0002374176573 -8.408571114e-06 0)
(0.0002384168674 -8.791005026e-06 0)
(0.0002394543496 -9.137489041e-06 0)
(0.0002405274643 -9.443283263e-06 0)
(0.0002416329033 -9.703899954e-06 0)
(0.0002427667172 -9.915217713e-06 0)
(0.000243924367 -1.007359527e-05 0)
(0.0002451007993 -1.017597805e-05 0)
(0.0002462905432 -1.021999057e-05 0)
(0.0002186646265 9.094833697e-08 0)
(0.00021870063 2.776016197e-07 0)
(0.0002187758975 4.653764946e-07 0)
(0.0002188908058 6.489017694e-07 0)
(0.0002190408779 8.231004104e-07 0)
(0.000219222213 9.835463431e-07 0)
(0.000219431999 1.126338285e-06 0)
(0.0002196674098 1.24805172e-06 0)
(0.0002199252316 1.345786092e-06 0)
(0.0002202021565 1.417188608e-06 0)
(0.0002204950845 1.46042311e-06 0)
(0.000220801232 1.474116457e-06 0)
(0.0002211181549 1.457307169e-06 0)
(0.0002214437807 1.409396768e-06 0)
(0.0002217764491 1.330096904e-06 0)
(0.0002221149387 1.219371967e-06 0)
(0.0002224584741 1.077383068e-06 0)
(0.000222806718 9.044403009e-07 0)
(0.0002231597599 7.009679371e-07 0)
(0.0002235180791 4.674767092e-07 0)
(0.0002238825934 2.045637261e-07 0)
(0.0002242545446 -8.716345208e-08 0)
(0.0002246354108 -4.069808164e-07 0)
(0.0002250270243 -7.540825927e-07 0)
(0.0002254315161 -1.127557394e-06 0)
(0.0002258512247 -1.526410532e-06 0)
(0.0002262886489 -1.949526059e-06 0)
(0.0002267464442 -2.395609908e-06 0)
(0.0002272274039 -2.863157592e-06 0)
(0.0002277344078 -3.350430927e-06 0)
(0.000228270372 -3.855424536e-06 0)
(0.0002288382078 -4.375831202e-06 0)
(0.0002294407755 -4.909010692e-06 0)
(0.0002300808291 -5.451963814e-06 0)
(0.0002307609561 -6.001312689e-06 0)
(0.0002314835127 -6.553289098e-06 0)
(0.000232250553 -7.10373246e-06 0)
(0.0002330637544 -7.648098955e-06 0)
(0.0002339243401 -8.181483757e-06 0)
(0.0002348330002 -8.698658591e-06 0)
(0.0002357898165 -9.19412628e-06 0)
(0.0002367941906 -9.66219334e-06 0)
(0.0002378447824 -1.009706126e-05 0)
(0.0002389394627 -1.049293663e-05 0)
(0.0002400752872 -1.084415812e-05 0)
(0.0002412484929 -1.114533579e-05 0)
(0.0002424545219 -1.139149738e-05 0)
(0.0002436880774 -1.157823587e-05 0)
(0.0002449432141 -1.170185051e-05 0)
(0.000246213459 -1.175947122e-05 0)
(0.0002186639864 6.802514651e-08 0)
(0.0002186949522 2.096285878e-07 0)
(0.0002187596383 3.538740872e-07 0)
(0.0002188583862 4.961115164e-07 0)
(0.0002189874455 6.318374122e-07 0)
(0.0002191436169 7.57030476e-07 0)
(0.0002193246582 8.680531033e-07 0)
(0.0002195283178 9.616147208e-07 0)