/*--------------------------------*- C++ -*----------------------------------*\
| =========                 |                                                 |
| \\      /  F ield         | foam-extend: Open Source CFD                    |
|  \\    /   O peration     | Version:     4.1                                |
|   \\  /    A nd           | Web:         http://www.foam-extend.org         |
|    \\/     M anipulation  |                                                 |
\*---------------------------------------------------------------------------*/
FoamFile
{
    version     2.0;
    format      ascii;
    class       volVectorField;
    location    "180000";
    object      vorticity;
}
// * * * * * * * * * * * * * * * * * * * * * * * * * * * * * * * * * * * * * //

dimensions      [0 0 -1 0 0 0 0];

internalField   nonuniform List<vector> 
15920
(
(0 -0 -0.008255994939)
(0 -0 -0.00840459287)
(0 -0 -0.008447853603)
(0 -0 -0.008321629124)
(0 -0 -0.008109227827)
(0 -0 -0.007868724793)
(0 -0 -0.007611072516)
(0 -0 -0.007337539099)
(0 -0 -0.007056667558)
(0 -0 -0.006779422991)
(0 -0 -0.00651350277)
(0 -0 -0.006263183214)
(0 -0 -0.006030920385)
(0 -0 -0.00581806744)
(0 -0 -0.005624962216)
(0 -0 -0.005451085867)
(0 -0 -0.005295355912)
(0 -0 -0.005156385532)
(0 -0 -0.005032653511)
(0 -0 -0.004922614372)
(0 -0 -0.004824774405)
(0 -0 -0.004737740767)
(0 -0 -0.004660247532)
(0 -0 -0.004591164963)
(0 -0 -0.004529496642)
(0 -0 -0.004474372213)
(0 -0 -0.00442503627)
(0 -0 -0.004380835226)
(0 -0 -0.004341203654)
(0 -0 -0.004305650999)
(0 -0 -0.004273749138)
(0 -0 -0.004245120961)
(0 -0 -0.004219427954)
(0 -0 -0.004196368962)
(0 -0 -0.004175675594)
(0 -0 -0.004157099557)
(0 -0 -0.00414040467)
(0 -0 -0.004125364634)
(0 -0 -0.004111761604)
(0 -0 -0.004099384459)
(0 -0 -0.004088027674)
(0 -0 -0.004077493077)
(0 -0 -0.004067592583)
(0 -0 -0.004058132811)
(0 -0 -0.004048916409)
(0 -0 -0.004039752587)
(0 -0 -0.004030458551)
(0 -0 -0.004020856039)
(0 -0 -0.004010770957)
(0 -0 -0.004000034729)
(0 -0 0.0003549949687)
(0 -0 -8.696110822e-06)
(0 -0 -0.0003969191174)
(0 -0 -0.0007986462918)
(0 -0 -0.001197064764)
(0 -0 -0.001575883946)
(0 -0 -0.001925882948)
(0 -0 -0.002241906135)
(0 -0 -0.002519884452)
(0 -0 -0.002757483091)
(0 -0 -0.002954990205)
(0 -0 -0.003114839126)
(0 -0 -0.00324061602)
(0 -0 -0.003336393006)
(0 -0 -0.003406395531)
(0 -0 -0.003454768027)
(0 -0 -0.00348537774)
(0 -0 -0.003501690904)
(0 -0 -0.00350672482)
(0 -0 -0.00350304819)
(0 -0 -0.003492805994)
(0 -0 -0.00347775769)
(0 -0 -0.00345932278)
(0 -0 -0.003438629326)
(0 -0 -0.003416560972)
(0 -0 -0.003393799516)
(0 -0 -0.003370862638)
(0 -0 -0.003348136704)
(0 -0 -0.003325904572)
(0 -0 -0.003304368638)
(0 -0 -0.003283669558)
(0 -0 -0.003263901348)
(0 -0 -0.003245123859)
(0 -0 -0.003227368839)
(0 -0 -0.003210647692)
(0 -0 -0.003194958611)
(0 -0 -0.003180290201)
(0 -0 -0.003166623793)
(0 -0 -0.003153935121)
(0 -0 -0.003142195514)
(0 -0 -0.003131372429)
(0 -0 -0.003121428306)
(0 -0 -0.003112320705)
(0 -0 -0.003104008264)
(0 -0 -0.003096447716)
(0 -0 -0.003089592491)
(0 -0 -0.003083392069)
(0 -0 -0.00307779187)
(0 -0 -0.003072733431)
(0 -0 -0.003068154752)
(0 -0 0.0001749750935)
(0 -0 0.0002540439671)
(0 -0 0.0003179848819)
(0 -0 0.0003456910239)
(0 -0 0.0003313731736)
(0 -0 0.0002771613118)
(0 -0 0.0001894862919)
(0 -0 7.622628837e-05)
(0 -0 -5.471013504e-05)
(0 -0 -0.0001960085606)
(0 -0 -0.0003413767288)
(0 -0 -0.000485792274)
(0 -0 -0.0006255219709)
(0 -0 -0.0007579830866)
(0 -0 -0.0008815565482)
(0 -0 -0.0009953931834)
(0 -0 -0.001099226028)
(0 -0 -0.001193201869)
(0 -0 -0.00127774226)
(0 -0 -0.001353436066)
(0 -0 -0.001420960057)
(0 -0 -0.001481022758)
(0 -0 -0.001534326775)
(0 -0 -0.001581544487)
(0 -0 -0.001623305636)
(0 -0 -0.001660191488)
(0 -0 -0.001692733281)
(0 -0 -0.001721413451)
(0 -0 -0.001746668509)
(0 -0 -0.001768892763)
(0 -0 -0.001788442336)
(0 -0 -0.001805639112)
(0 -0 -0.0018207747)
(0 -0 -0.00183411289)
(0 -0 -0.001845893627)
(0 -0 -0.001856336022)
(0 -0 -0.001865640054)
(0 -0 -0.001873988524)
(0 -0 -0.001881548854)
(0 -0 -0.00188847452)
(0 -0 -0.001894906214)
(0 -0 -0.001900972592)
(0 -0 -0.00190679128)
(0 -0 -0.001912471435)
(0 -0 -0.001918111902)
(0 -0 -0.001923802137)
(0 -0 -0.001929623155)
(0 -0 -0.001935647645)
(0 -0 -0.001941940057)
(0 -0 -0.001948556839)
(0 -0 0.0001483503035)
(0 -0 0.0001512484666)
(0 -0 0.0001621610656)
(0 -0 0.0001813522626)
(0 -0 0.0002062562567)
(0 -0 0.0002326675195)
(0 -0 0.0002560776399)
(0 -0 0.0002728576404)
(0 -0 0.0002806854553)
(0 -0 0.000278501619)
(0 -0 0.000266301714)
(0 -0 0.0002448590192)
(0 -0 0.0002154249926)
(0 -0 0.0001794690155)
(0 -0 0.0001384897886)
(0 -0 9.389350414e-05)
(0 -0 4.692531998e-05)
(0 -0 -1.359639064e-06)
(0 -0 -5.009841411e-05)
(0 -0 -9.860631036e-05)
(0 -0 -0.0001463550574)
(0 -0 -0.0001929483976)
(0 -0 -0.0002380983376)
(0 -0 -0.0002816036217)
(0 -0 -0.0003233318357)
(0 -0 -0.000363204482)
(0 -0 -0.000401185002)
(0 -0 -0.0004372694094)
(0 -0 -0.0004714790514)
(0 -0 -0.0005038550468)
(0 -0 -0.0005344540192)
(0 -0 -0.0005633448023)
(0 -0 -0.0005906058813)
(0 -0 -0.0006163232933)
(0 -0 -0.0006405890239)
(0 -0 -0.00066349968)
(0 -0 -0.0006851552969)
(0 -0 -0.0007056583258)
(0 -0 -0.0007251127583)
(0 -0 -0.0007436233385)
(0 -0 -0.000761294847)
(0 -0 -0.0007782314779)
(0 -0 -0.0007945363092)
(0 -0 -0.0008103108668)
(0 -0 -0.0008256545654)
(0 -0 -0.0008406643784)
(0 -0 -0.0008554345896)
(0 -0 -0.0008700564612)
(0 -0 -0.0008846178969)
(0 -0 -0.0008992031698)
(0 -0 0.0001045996263)
(0 -0 0.0001056284657)
(0 -0 0.0001069459206)
(0 -0 0.0001090656342)
(0 -0 0.0001127552169)
(0 -0 0.0001186566741)
(0 -0 0.0001270021609)
(0 -0 0.0001375377275)
(0 -0 0.0001496145934)
(0 -0 0.0001623474931)
(0 -0 0.000174784872)
(0 -0 0.0001860550271)
(0 -0 0.000195460006)
(0 -0 0.000202512858)
(0 -0 0.0002069338838)
(0 -0 0.000208623294)
(0 -0 0.0002076231638)
(0 -0 0.0002040777391)
(0 -0 0.0001981977084)
(0 -0 0.0001902311231)
(0 -0 0.0001804414577)
(0 -0 0.0001690921031)
(0 -0 0.000156436129)
(0 -0 0.0001427100817)
(0 -0 0.0001281306777)
(0 -0 0.0001128934437)
(0 -0 9.717260957e-05)
(0 -0 8.112174844e-05)
(0 -0 6.487481677e-05)
(0 -0 4.854737431e-05)
(0 -0 3.223785394e-05)
(0 -0 1.602881195e-05)
(0 -0 -1.187561956e-08)
(0 -0 -1.582988025e-05)
(0 -0 -3.138335182e-05)
(0 -0 -4.664191673e-05)
(0 -0 -6.158572433e-05)
(0 -0 -7.620452163e-05)
(0 -0 -9.049680378e-05)
(0 -0 -0.0001044689748)
(0 -0 -0.000118134447)
(0 -0 -0.0001315131071)
(0 -0 -0.0001446307285)
(0 -0 -0.0001575151193)
(0 -0 -0.0001701982782)
(0 -0 -0.0001827193584)
(0 -0 -0.0001951215196)
(0 -0 -0.0002074507353)
(0 -0 -0.0002197552449)
(0 -0 -0.000232085152)
(0 -0 8.11065135e-05)
(0 -0 8.151446221e-05)
(0 -0 8.200812805e-05)
(0 -0 8.252986172e-05)
(0 -0 8.308424114e-05)
(0 -0 8.375764713e-05)
(0 -0 8.470882712e-05)
(0 -0 8.613001008e-05)
(0 -0 8.819431465e-05)
(0 -0 9.10104014e-05)
(0 -0 9.459833489e-05)
(0 -0 9.888920007e-05)
(0 -0 0.0001037420995)
(0 -0 0.0001089693188)
(0 -0 0.000114362277)
(0 -0 0.0001197138556)
(0 -0 0.0001248348817)
(0 -0 0.0001295642828)
(0 -0 0.0001337737044)
(0 -0 0.0001373679941)
(0 -0 0.0001402829891)
(0 -0 0.0001424818048)
(0 -0 0.0001439505139)
(0 -0 0.0001446938073)
(0 -0 0.0001447309861)
(0 -0 0.000144092437)
(0 -0 0.000142816632)
(0 -0 0.0001409476258)
(0 -0 0.0001385329997)
(0 -0 0.0001356221892)
(0 -0 0.0001322651279)
(0 -0 0.0001285111528)
(0 -0 0.0001244081211)
(0 -0 0.0001200016979)
(0 -0 0.0001153348065)
(0 -0 0.0001104471442)
(0 -0 0.0001053748631)
(0 -0 0.0001001504855)
(0 -0 9.480194155e-05)
(0 -0 8.935343101e-05)
(0 -0 8.38257166e-05)
(0 -0 7.823591232e-05)
(0 -0 7.25973469e-05)
(0 -0 6.691623163e-05)
(0 -0 6.119514654e-05)
(0 -0 5.543651745e-05)
(0 -0 4.963986205e-05)
(0 -0 4.380132801e-05)
(0 -0 3.791375672e-05)
(0 -0 3.19668172e-05)
(0 -0 6.453700406e-05)
(0 -0 6.485632565e-05)
(0 -0 6.524464053e-05)
(0 -0 6.5675637e-05)
(0 -0 6.613089344e-05)
(0 -0 6.65909117e-05)
(0 -0 6.70391277e-05)
(0 -0 6.747196846e-05)
(0 -0 6.790549045e-05)
(0 -0 6.837382987e-05)
(0 -0 6.892174676e-05)
(0 -0 6.959546171e-05)
(0 -0 7.043438419e-05)
(0 -0 7.146502663e-05)
(0 -0 7.269780401e-05)
(0 -0 7.412676234e-05)
(0 -0 7.573158114e-05)
(0 -0 7.748087211e-05)
(0 -0 7.933588738e-05)
(0 -0 8.125402684e-05)
(0 -0 8.319180898e-05)
(0 -0 8.510718049e-05)
(0 -0 8.696117645e-05)
(0 -0 8.871901239e-05)
(0 -0 9.035071643e-05)
(0 -0 9.183140186e-05)
(0 -0 9.31412756e-05)
(0 -0 9.426546008e-05)
(0 -0 9.519369104e-05)
(0 -0 9.591994019e-05)
(0 -0 9.644199106e-05)
(0 -0 9.676099566e-05)
(0 -0 9.688100885e-05)
(0 -0 9.680850884e-05)
(0 -0 9.655216198e-05)
(0 -0 9.612119469e-05)
(0 -0 9.552625002e-05)
(0 -0 9.477927281e-05)
(0 -0 9.389352098e-05)
(0 -0 9.288226162e-05)
(0 -0 9.17579339e-05)
(0 -0 9.053265227e-05)
(0 -0 8.92184474e-05)
(0 -0 8.782357148e-05)
(0 -0 8.635479752e-05)
(0 -0 8.482124495e-05)
(0 -0 8.323185933e-05)
(0 -0 8.159444256e-05)
(0 -0 7.991539398e-05)
(0 -0 7.819961964e-05)
(0 -0 5.191339363e-05)
(0 -0 5.219774889e-05)
(0 -0 5.25305221e-05)
(0 -0 5.289065793e-05)
(0 -0 5.327058803e-05)
(0 -0 5.366466451e-05)
(0 -0 5.406532821e-05)
(0 -0 5.446319108e-05)
(0 -0 5.484888402e-05)
(0 -0 5.521489008e-05)
(0 -0 5.555692095e-05)
(0 -0 5.587485786e-05)
(0 -0 5.617297192e-05)
(0 -0 5.645917328e-05)
(0 -0 5.674352114e-05)
(0 -0 5.703653944e-05)
(0 -0 5.734778431e-05)
(0 -0 5.768484405e-05)
(0 -0 5.805276572e-05)
(0 -0 5.845383578e-05)
(0 -0 5.888763478e-05)
(0 -0 5.935129353e-05)
(0 -0 5.983988459e-05)
(0 -0 6.034688732e-05)
(0 -0 6.086467296e-05)
(0 -0 6.138496882e-05)
(0 -0 6.189927477e-05)
(0 -0 6.239922331e-05)
(0 -0 6.287687936e-05)
(0 -0 6.332498485e-05)
(0 -0 6.373713474e-05)
(0 -0 6.410792907e-05)
(0 -0 6.443302754e-05)
(0 -0 6.470873935e-05)
(0 -0 6.493271012e-05)
(0 -0 6.510479879e-05)
(0 -0 6.522560536e-05)
(0 -0 6.529590433e-05)
(0 -0 6.531795519e-05)
(0 -0 6.529452307e-05)
(0 -0 6.522845064e-05)
(0 -0 6.512285616e-05)
(0 -0 6.498113247e-05)
(0 -0 6.481016554e-05)
(0 -0 6.461713917e-05)
(0 -0 6.440597071e-05)
(0 -0 6.417988178e-05)
(0 -0 6.394199858e-05)
(0 -0 6.369537009e-05)
(0 -0 6.344288679e-05)
(0 -0 4.215897068e-05)
(0 -0 4.242348296e-05)
(0 -0 4.272227477e-05)
(0 -0 4.303400454e-05)
(0 -0 4.335214099e-05)
(0 -0 4.367374146e-05)
(0 -0 4.399608354e-05)
(0 -0 4.431589203e-05)
(0 -0 4.462945273e-05)
(0 -0 4.493272223e-05)
(0 -0 4.522146246e-05)
(0 -0 4.549161443e-05)
(0 -0 4.573979943e-05)
(0 -0 4.596367022e-05)
(0 -0 4.616199885e-05)
(0 -0 4.633459263e-05)
(0 -0 4.648216524e-05)
(0 -0 4.660620183e-05)
(0 -0 4.670879251e-05)
(0 -0 4.679241635e-05)
(0 -0 4.685969669e-05)
(0 -0 4.691317261e-05)
(0 -0 4.69551205e-05)
(0 -0 4.698744242e-05)
(0 -0 4.70116118e-05)
(0 -0 4.702866666e-05)
(0 -0 4.703923517e-05)
(0 -0 4.704358555e-05)
(0 -0 4.704168953e-05)
(0 -0 4.703331039e-05)
(0 -0 4.701805861e-05)
(0 -0 4.699523178e-05)
(0 -0 4.696441713e-05)
(0 -0 4.692577441e-05)
(0 -0 4.68789255e-05)
(0 -0 4.682464453e-05)
(0 -0 4.676376797e-05)
(0 -0 4.669682675e-05)
(0 -0 4.662371067e-05)
(0 -0 4.654479555e-05)
(0 -0 4.646141061e-05)
(0 -0 4.637526601e-05)
(0 -0 4.62882882e-05)
(0 -0 4.620269875e-05)
(0 -0 4.612092679e-05)
(0 -0 4.604544548e-05)
(0 -0 4.597869527e-05)
(0 -0 4.592305291e-05)
(0 -0 4.588080732e-05)
(0 -0 4.585413086e-05)
(0 -0 3.441421998e-05)
(0 -0 3.46760417e-05)
(0 -0 3.496378274e-05)
(0 -0 3.525492603e-05)
(0 -0 3.554289667e-05)
(0 -0 3.582509885e-05)
(0 -0 3.609953181e-05)
(0 -0 3.636400199e-05)
(0 -0 3.661622369e-05)
(0 -0 3.685392858e-05)
(0 -0 3.707491025e-05)
(0 -0 3.727714511e-05)
(0 -0 3.745893789e-05)
(0 -0 3.761895144e-05)
(0 -0 3.77561082e-05)
(0 -0 3.786948267e-05)
(0 -0 3.795829202e-05)
(0 -0 3.802198345e-05)
(0 -0 3.806033824e-05)
(0 -0 3.807352347e-05)
(0 -0 3.80620739e-05)
(0 -0 3.802683408e-05)
(0 -0 3.796889131e-05)
(0 -0 3.788952094e-05)
(0 -0 3.779014211e-05)
(0 -0 3.767228105e-05)
(0 -0 3.753753803e-05)
(0 -0 3.73875546e-05)
(0 -0 3.722402338e-05)
(0 -0 3.704838931e-05)
(0 -0 3.686230282e-05)
(0 -0 3.66676723e-05)
(0 -0 3.646618029e-05)
(0 -0 3.625992763e-05)
(0 -0 3.605085822e-05)
(0 -0 3.58397378e-05)
(0 -0 3.562748117e-05)
(0 -0 3.541566671e-05)
(0 -0 3.520602888e-05)
(0 -0 3.500034725e-05)
(0 -0 3.480046917e-05)
(0 -0 3.46083191e-05)
(0 -0 3.442588353e-05)
(0 -0 3.425519208e-05)
(0 -0 3.409828544e-05)
(0 -0 3.395717686e-05)
(0 -0 3.383382232e-05)
(0 -0 3.373010172e-05)
(0 -0 3.364780306e-05)
(0 -0 3.358859862e-05)
(0 -0 2.813278256e-05)
(0 -0 2.840179768e-05)
(0 -0 2.869183653e-05)
(0 -0 2.897875e-05)
(0 -0 2.925570492e-05)
(0 -0 2.95202513e-05)
(0 -0 2.977073741e-05)
(0 -0 3.000539144e-05)
(0 -0 3.022234132e-05)
(0 -0 3.041972557e-05)
(0 -0 3.059579343e-05)
(0 -0 3.074907925e-05)
(0 -0 3.087855714e-05)
(0 -0 3.098363058e-05)
(0 -0 3.106396433e-05)
(0 -0 3.111930482e-05)
(0 -0 3.114941431e-05)
(0 -0 3.115412581e-05)
(0 -0 3.113343736e-05)
(0 -0 3.108757001e-05)
(0 -0 3.101696923e-05)
(0 -0 3.092227573e-05)
(0 -0 3.080429867e-05)
(0 -0 3.06640036e-05)
(0 -0 3.050251304e-05)
(0 -0 3.032109937e-05)
(0 -0 3.012121519e-05)
(0 -0 2.990430332e-05)
(0 -0 2.967197593e-05)
(0 -0 2.942622941e-05)
(0 -0 2.916905714e-05)
(0 -0 2.890273791e-05)
(0 -0 2.862937444e-05)
(0 -0 2.83506078e-05)
(0 -0 2.806844078e-05)
(0 -0 2.778492462e-05)
(0 -0 2.750209221e-05)
(0 -0 2.722198007e-05)
(0 -0 2.694664106e-05)
(0 -0 2.667815191e-05)
(0 -0 2.641861832e-05)
(0 -0 2.617016791e-05)
(0 -0 2.593493061e-05)
(0 -0 2.571501381e-05)
(0 -0 2.551247319e-05)
(0 -0 2.532927838e-05)
(0 -0 2.516727799e-05)
(0 -0 2.5028175e-05)
(0 -0 2.491351847e-05)
(0 -0 2.48246999e-05)
(0 -0 2.295717245e-05)
(0 -0 2.323939917e-05)
(0 -0 2.353986513e-05)
(0 -0 2.38324925e-05)
(0 -0 2.411004787e-05)
(0 -0 2.437010362e-05)
(0 -0 2.461119522e-05)
(0 -0 2.483178004e-05)
(0 -0 2.503020127e-05)
(0 -0 2.520479198e-05)
(0 -0 2.535399542e-05)
(0 -0 2.547656581e-05)
(0 -0 2.557173816e-05)
(0 -0 2.563921275e-05)
(0 -0 2.567896948e-05)
(0 -0 2.569107296e-05)
(0 -0 2.567560235e-05)
(0 -0 2.563270817e-05)
(0 -0 2.556270802e-05)
(0 -0 2.546613749e-05)
(0 -0 2.534374249e-05)
(0 -0 2.519643885e-05)
(0 -0 2.502528202e-05)
(0 -0 2.483145379e-05)
(0 -0 2.46162726e-05)
(0 -0 2.438115694e-05)
(0 -0 2.412756095e-05)
(0 -0 2.385728568e-05)
(0 -0 2.357224618e-05)
(0 -0 2.327466607e-05)
(0 -0 2.296665455e-05)
(0 -0 2.265015141e-05)
(0 -0 2.232735011e-05)
(0 -0 2.200050777e-05)
(0 -0 2.167188813e-05)
(0 -0 2.134374358e-05)
(0 -0 2.101830581e-05)
(0 -0 2.069778776e-05)
(0 -0 2.038439554e-05)
(0 -0 2.008034215e-05)
(0 -0 1.9787854e-05)
(0 -0 1.950916032e-05)
(0 -0 1.924646504e-05)
(0 -0 1.900191135e-05)
(0 -0 1.877754936e-05)
(0 -0 1.857530632e-05)
(0 -0 1.839695454e-05)
(0 -0 1.824408113e-05)
(0 -0 1.811807081e-05)
(0 -0 1.802010411e-05)
(0 -0 1.863688243e-05)
(0 -0 1.893648002e-05)
(0 -0 1.925286615e-05)
(0 -0 1.955782671e-05)
(0 -0 1.984362692e-05)
(0 -0 2.010776769e-05)
(0 -0 2.034884948e-05)
(0 -0 2.056541899e-05)
(0 -0 2.075590264e-05)
(0 -0 2.091871495e-05)
(0 -0 2.105239435e-05)
(0 -0 2.115582065e-05)
(0 -0 2.122839294e-05)
(0 -0 2.127000587e-05)
(0 -0 2.128084547e-05)
(0 -0 2.126118003e-05)
(0 -0 2.121128978e-05)
(0 -0 2.113153262e-05)
(0 -0 2.102244859e-05)
(0 -0 2.088481322e-05)
(0 -0 2.071962557e-05)
(0 -0 2.052806467e-05)
(0 -0 2.031144843e-05)
(0 -0 2.007125235e-05)
(0 -0 1.980894224e-05)
(0 -0 1.952623291e-05)
(0 -0 1.922506551e-05)
(0 -0 1.89075938e-05)
(0 -0 1.85760385e-05)
(0 -0 1.823244403e-05)
(0 -0 1.787908061e-05)
(0 -0 1.751836442e-05)
(0 -0 1.715276357e-05)
(0 -0 1.67847651e-05)
(0 -0 1.641684392e-05)
(0 -0 1.60514408e-05)
(0 -0 1.569095646e-05)
(0 -0 1.533775811e-05)
(0 -0 1.499419196e-05)
(0 -0 1.466259416e-05)
(0 -0 1.434529421e-05)
(0 -0 1.404460493e-05)
(0 -0 1.376279449e-05)
(0 -0 1.35020447e-05)
(0 -0 1.326440907e-05)
(0 -0 1.305177837e-05)
(0 -0 1.286585173e-05)
(0 -0 1.270811175e-05)
(0 -0 1.257980952e-05)
(0 -0 1.248196176e-05)
(0 -0 1.499249274e-05)
(0 -0 1.531244587e-05)
(0 -0 1.564861289e-05)
(0 -0 1.597049095e-05)
(0 -0 1.626977252e-05)
(0 -0 1.654382483e-05)
(0 -0 1.67912359e-05)
(0 -0 1.701055365e-05)
(0 -0 1.720020087e-05)
(0 -0 1.735859183e-05)
(0 -0 1.748428263e-05)
(0 -0 1.757620603e-05)
(0 -0 1.763385894e-05)
(0 -0 1.765727218e-05)
(0 -0 1.764678827e-05)
(0 -0 1.760283765e-05)
(0 -0 1.752586544e-05)
(0 -0 1.741640486e-05)
(0 -0 1.727518839e-05)
(0 -0 1.710320466e-05)
(0 -0 1.69016819e-05)
(0 -0 1.66720448e-05)
(0 -0 1.641583793e-05)
(0 -0 1.613470786e-05)
(0 -0 1.583056898e-05)
(0 -0 1.550549528e-05)
(0 -0 1.51617679e-05)
(0 -0 1.480157597e-05)
(0 -0 1.442724329e-05)
(0 -0 1.404127004e-05)
(0 -0 1.364627267e-05)
(0 -0 1.324494817e-05)
(0 -0 1.28400297e-05)
(0 -0 1.243425189e-05)
(0 -0 1.203031933e-05)
(0 -0 1.163088328e-05)
(0 -0 1.123853524e-05)
(0 -0 1.085581608e-05)
(0 -0 1.048523096e-05)
(0 -0 1.012925914e-05)
(0 -0 9.790352346e-06)
(0 -0 9.470921112e-06)
(0 -0 9.173307379e-06)
(0 -0 8.899742479e-06)
(0 -0 8.652298625e-06)
(0 -0 8.432847641e-06)
(0 -0 8.243031197e-06)
(0 -0 8.084238851e-06)
(0 -0 7.95759701e-06)
(0 -0 7.863972531e-06)
(0 -0 1.189312089e-05)
(0 -0 1.223564926e-05)
(0 -0 1.259440784e-05)
(0 -0 1.293649402e-05)
(0 -0 1.325297496e-05)
(0 -0 1.354104105e-05)
(0 -0 1.37992168e-05)
(0 -0 1.402599384e-05)
(0 -0 1.421973301e-05)
(0 -0 1.437879203e-05)
(0 -0 1.450169033e-05)
(0 -0 1.458736149e-05)
(0 -0 1.463535194e-05)
(0 -0 1.464578609e-05)
(0 -0 1.461912697e-05)
(0 -0 1.455593678e-05)
(0 -0 1.445680026e-05)
(0 -0 1.432240486e-05)
(0 -0 1.415366072e-05)
(0 -0 1.39517546e-05)
(0 -0 1.371815259e-05)
(0 -0 1.345443947e-05)
(0 -0 1.316243459e-05)
(0 -0 1.284415761e-05)
(0 -0 1.250189055e-05)
(0 -0 1.213790105e-05)
(0 -0 1.175452099e-05)
(0 -0 1.135429487e-05)
(0 -0 1.093991866e-05)
(0 -0 1.051420938e-05)
(0 -0 1.008007854e-05)
(0 -0 9.64050404e-06)
(0 -0 9.198495032e-06)
(0 -0 8.757052214e-06)
(0 -0 8.319131325e-06)
(0 -0 7.887617991e-06)
(0 -0 7.465319701e-06)
(0 -0 7.054973984e-06)
(0 -0 6.659263884e-06)
(0 -0 6.280827051e-06)
(0 -0 5.922250546e-06)
(0 -0 5.586052807e-06)
(0 -0 5.274654882e-06)
(0 -0 4.990338955e-06)
(0 -0 4.735196233e-06)
(0 -0 4.511081077e-06)
(0 -0 4.319585165e-06)
(0 -0 4.162023247e-06)
(0 -0 4.039418619e-06)
(0 -0 3.952496781e-06)
(0 -0 9.241664842e-06)
(0 -0 9.608478107e-06)
(0 -0 9.991941058e-06)
(0 -0 1.035667594e-05)
(0 -0 1.069308379e-05)
(0 -0 1.099814625e-05)
(0 -0 1.127028818e-05)
(0 -0 1.150790424e-05)
(0 -0 1.170925229e-05)
(0 -0 1.18725933e-05)
(0 -0 1.199637173e-05)
(0 -0 1.207948617e-05)
(0 -0 1.21215001e-05)
(0 -0 1.212260244e-05)
(0 -0 1.208335078e-05)
(0 -0 1.200441645e-05)
(0 -0 1.18865052e-05)
(0 -0 1.173044366e-05)
(0 -0 1.15373092e-05)
(0 -0 1.130846678e-05)
(0 -0 1.104555314e-05)
(0 -0 1.075049277e-05)
(0 -0 1.042541613e-05)
(0 -0 1.007263762e-05)
(0 -0 9.694484404e-06)
(0 -0 9.293478513e-06)
(0 -0 8.872336565e-06)
(0 -0 8.433933343e-06)
(0 -0 7.981268641e-06)
(0 -0 7.517455571e-06)
(0 -0 7.045707069e-06)
(0 -0 6.569306105e-06)
(0 -0 6.091564149e-06)
(0 -0 5.615774882e-06)
(0 -0 5.145172488e-06)
(0 -0 4.68290266e-06)
(0 -0 4.232010556e-06)
(0 -0 3.795444411e-06)
(0 -0 3.376068722e-06)
(0 -0 2.976675289e-06)
(0 -0 2.59998056e-06)
(0 -0 2.24860548e-06)
(0 -0 1.925044023e-06)
(0 -0 1.631623601e-06)
(0 -0 1.370455552e-06)
(0 -0 1.14338481e-06)
(0 -0 9.519592204e-07)
(0 -0 7.974211082e-07)
(0 -0 6.80699184e-07)
(0 -0 6.02394488e-07)
(0 -0 6.965194208e-06)
(0 -0 7.357626208e-06)
(0 -0 7.767415071e-06)
(0 -0 8.156653504e-06)
(0 -0 8.515041701e-06)
(0 -0 8.839327011e-06)
(0 -0 9.127807348e-06)
(0 -0 9.378750556e-06)
(0 -0 9.590281365e-06)
(0 -0 9.7605352e-06)
(0 -0 9.887853932e-06)
(0 -0 9.971076026e-06)
(0 -0 1.000975962e-05)
(0 -0 1.000413767e-05)
(0 -0 9.954843241e-06)
(0 -0 9.862640034e-06)
(0 -0 9.728340117e-06)
(0 -0 9.552903346e-06)
(0 -0 9.337535593e-06)
(0 -0 9.083802247e-06)
(0 -0 8.793610442e-06)
(0 -0 8.469184948e-06)
(0 -0 8.112821658e-06)
(0 -0 7.726969576e-06)
(0 -0 7.314286209e-06)
(0 -0 6.877612215e-06)
(0 -0 6.419963984e-06)
(0 -0 5.9445179e-06)
(0 -0 5.45459322e-06)
(0 -0 4.953639033e-06)
(0 -0 4.445212945e-06)
(0 -0 3.932942861e-06)
(0 -0 3.420474199e-06)
(0 -0 2.911412706e-06)
(0 -0 2.409275706e-06)
(0 -0 1.917461166e-06)
(0 -0 1.439236034e-06)
(0 -0 9.777405549e-07)
(0 -0 5.360034454e-07)
(0 -0 1.169593855e-07)
(0 -0 -2.765464429e-07)
(0 -0 -6.417801845e-07)
(0 -0 -9.76161879e-07)
(0 -0 -1.277311145e-06)
(0 -0 -1.543089115e-06)
(0 -0 -1.771642671e-06)
(0 -0 -1.961445947e-06)
(0 -0 -2.111323114e-06)
(0 -0 -2.22045332e-06)
(0 -0 -2.288370399e-06)
(0 -0 5.008421556e-06)
(0 -0 5.427490199e-06)
(0 -0 5.864856721e-06)
(0 -0 6.280027014e-06)
(0 -0 6.661966812e-06)
(0 -0 7.007167616e-06)
(0 -0 7.313778286e-06)
(0 -0 7.579917219e-06)
(0 -0 7.803552933e-06)
(0 -0 7.982673421e-06)
(0 -0 8.115498853e-06)
(0 -0 8.200789746e-06)
(0 -0 8.238081975e-06)
(0 -0 8.227636539e-06)
(0 -0 8.170147248e-06)
(0 -0 8.066458467e-06)
(0 -0 7.917472752e-06)
(0 -0 7.724253519e-06)
(0 -0 7.488206778e-06)
(0 -0 7.211128118e-06)
(0 -0 6.895143831e-06)
(0 -0 6.542566784e-06)
(0 -0 6.155930996e-06)
(0 -0 5.737981584e-06)
(0 -0 5.291663838e-06)
(0 -0 4.820121002e-06)
(0 -0 4.326690015e-06)
(0 -0 3.814892626e-06)
(0 -0 3.288419026e-06)
(0 -0 2.751101783e-06)
(0 -0 2.206876378e-06)
(0 -0 1.659725992e-06)
(0 -0 1.113615787e-06)
(0 -0 5.724299494e-07)
(0 -0 3.992546028e-08)
(0 -0 -4.802898884e-07)
(0 -0 -9.847569264e-07)
(0 -0 -1.470151141e-06)
(0 -0 -1.933264714e-06)
(0 -0 -2.37099138e-06)
(0 -0 -2.780324813e-06)
(0 -0 -3.158383532e-06)
(0 -0 -3.502464111e-06)
(0 -0 -3.810101956e-06)
(0 -0 -4.079118604e-06)
(0 -0 -4.307659156e-06)
(0 -0 -4.494230017e-06)
(0 -0 -4.637726762e-06)
(0 -0 -4.737439939e-06)
(0 -0 -4.793046391e-06)
(0 -0 3.329168062e-06)
(0 -0 3.775553682e-06)
(0 -0 4.241445179e-06)
(0 -0 4.683647474e-06)
(0 -0 5.090343402e-06)
(0 -0 5.457753806e-06)
(0 -0 5.783861093e-06)
(0 -0 6.066615094e-06)
(0 -0 6.303810221e-06)
(0 -0 6.493270801e-06)
(0 -0 6.633080718e-06)
(0 -0 6.721909053e-06)
(0 -0 6.759255646e-06)
(0 -0 6.74539621e-06)
(0 -0 6.681072674e-06)
(0 -0 6.56719109e-06)
(0 -0 6.404757163e-06)
(0 -0 6.194983695e-06)
(0 -0 5.939444553e-06)
(0 -0 5.640060746e-06)
(0 -0 5.299099865e-06)
(0 -0 4.919120316e-06)
(0 -0 4.50291115e-06)
(0 -0 4.053487537e-06)
(0 -0 3.574100556e-06)
(0 -0 3.068240981e-06)
(0 -0 2.539628058e-06)
(0 -0 1.992182278e-06)
(0 -0 1.429986609e-06)
(0 -0 8.572402874e-07)
(0 -0 2.782071937e-07)
(0 -0 -3.028390107e-07)
(0 -0 -8.816692813e-07)
(0 -0 -1.454149462e-06)
(0 -0 -2.016279634e-06)
(0 -0 -2.564214856e-06)
(0 -0 -3.094263093e-06)
(0 -0 -3.602867875e-06)
(0 -0 -4.086591878e-06)
(0 -0 -4.542114e-06)
(0 -0 -4.966242311e-06)
(0 -0 -5.355943e-06)
(0 -0 -5.708389521e-06)
(0 -0 -6.021026356e-06)
(0 -0 -6.291629067e-06)
(0 -0 -6.518350429e-06)
(0 -0 -6.699754861e-06)
(0 -0 -6.834835236e-06)
(0 -0 -6.923006173e-06)
(0 -0 -6.964090685e-06)
(0 -0 1.895430867e-06)
(0 -0 2.369066013e-06)
(0 -0 2.864145809e-06)
(0 -0 3.334231166e-06)
(0 -0 3.766595043e-06)
(0 -0 4.157193709e-06)
(0 -0 4.50383456e-06)
(0 -0 4.804282958e-06)
(0 -0 5.056143802e-06)
(0 -0 5.257064631e-06)
(0 -0 5.404980714e-06)
(0 -0 5.498458284e-06)
(0 -0 5.536948856e-06)
(0 -0 5.520729889e-06)
(0 -0 5.450583744e-06)
(0 -0 5.327498752e-06)
(0 -0 5.152583062e-06)
(0 -0 4.927155424e-06)
(0 -0 4.652872722e-06)
(0 -0 4.33182086e-06)
(0 -0 3.966467833e-06)
(0 -0 3.559597344e-06)
(0 -0 3.114272176e-06)
(0 -0 2.633833142e-06)
(0 -0 2.121902869e-06)
(0 -0 1.582368288e-06)
(0 -0 1.019339527e-06)
(0 -0 4.370970337e-07)
(0 -0 -1.599580044e-07)
(0 -0 -7.673427057e-07)
(0 -0 -1.380525137e-06)
(0 -0 -1.994958076e-06)
(0 -0 -2.60611919e-06)
(0 -0 -3.20955954e-06)
(0 -0 -3.80095507e-06)
(0 -0 -4.376145948e-06)
(0 -0 -4.931149155e-06)
(0 -0 -5.462144828e-06)
(0 -0 -5.965456318e-06)
(0 -0 -6.437548263e-06)
(0 -0 -6.875047635e-06)
(0 -0 -7.274778595e-06)
(0 -0 -7.633809108e-06)
(0 -0 -7.949513351e-06)
(0 -0 -8.219638189e-06)
(0 -0 -8.442353293e-06)
(0 -0 -8.616281369e-06)
(0 -0 -8.740511902e-06)
(0 -0 -8.814595501e-06)
(0 -0 -8.838529582e-06)
(0 -0 6.699423006e-07)
(0 -0 1.179580426e-06)
(0 -0 1.706942971e-06)
(0 -0 2.20585764e-06)
(0 -0 2.664575511e-06)
(0 -0 3.079088438e-06)
(0 -0 3.447034907e-06)
(0 -0 3.765985763e-06)
(0 -0 4.033347045e-06)
(0 -0 4.246576761e-06)
(0 -0 4.403449389e-06)
(0 -0 4.502416483e-06)
(0 -0 4.542873116e-06)
(0 -0 4.525099177e-06)
(0 -0 4.449922679e-06)
(0 -0 4.318394035e-06)
(0 -0 4.131676175e-06)
(0 -0 3.891170138e-06)
(0 -0 3.598664686e-06)
(0 -0 3.256404682e-06)
(0 -0 2.867068591e-06)
(0 -0 2.433714463e-06)
(0 -0 1.959739371e-06)
(0 -0 1.448855611e-06)
(0 -0 9.05061326e-07)
(0 -0 3.325926974e-07)
(0 -0 -2.641320448e-07)
(0 -0 -8.805582719e-07)
(0 -0 -1.512020402e-06)
(0 -0 -2.153751688e-06)
(0 -0 -2.800896227e-06)
(0 -0 -3.448541788e-06)
(0 -0 -4.091778906e-06)
(0 -0 -4.725774741e-06)
(0 -0 -5.345843076e-06)
(0 -0 -5.947492901e-06)
(0 -0 -6.526446062e-06)
(0 -0 -7.078625257e-06)
(0 -0 -7.600129836e-06)
(0 -0 -8.087225292e-06)
(0 -0 -8.536361553e-06)
(0 -0 -8.944214256e-06)
(0 -0 -9.307739714e-06)
(0 -0 -9.624244372e-06)
(0 -0 -9.891457993e-06)
(0 -0 -1.010758256e-05)
(0 -0 -1.027131029e-05)
(0 -0 -1.038183181e-05)
(0 -0 -1.043884077e-05)
(0 -0 -1.044252717e-05)
(0 -0 -3.483661485e-07)
(0 -0 1.878043157e-07)
(0 -0 7.46422082e-07)
(0 -0 1.276494342e-06)
(0 -0 1.763390211e-06)
(0 -0 2.202702755e-06)
(0 -0 2.592499322e-06)
(0 -0 2.930499916e-06)
(0 -0 3.213961389e-06)
(0 -0 3.440127085e-06)
(0 -0 3.606589633e-06)
(0 -0 3.71167817e-06)
(0 -0 3.754730672e-06)
(0 -0 3.736020767e-06)
(0 -0 3.656400701e-06)
(0 -0 3.516958696e-06)
(0 -0 3.318921585e-06)
(0 -0 3.063774653e-06)
(0 -0 2.753434738e-06)
(0 -0 2.390338913e-06)
(0 -0 1.977428308e-06)
(0 -0 1.518079627e-06)
(0 -0 1.016034112e-06)
(0 -0 4.753375746e-07)
(0 -0 -9.971171358e-08)
(0 -0 -7.046092699e-07)
(0 -0 -1.33467874e-06)
(0 -0 -1.985087076e-06)
(0 -0 -2.650845018e-06)
(0 -0 -3.32680943e-06)
(0 -0 -4.007706218e-06)
(0 -0 -4.6881883e-06)
(0 -0 -5.362925642e-06)
(0 -0 -6.026702436e-06)
(0 -0 -6.67449124e-06)
(0 -0 -7.301491198e-06)
(0 -0 -7.90313659e-06)
(0 -0 -8.475086571e-06)
(0 -0 -9.013205293e-06)
(0 -0 -9.513547968e-06)
(0 -0 -9.97237558e-06)
(0 -0 -1.038620451e-05)
(0 -0 -1.075187481e-05)
(0 -0 -1.106662335e-05)
(0 -0 -1.132815572e-05)
(0 -0 -1.153469976e-05)
(0 -0 -1.16850278e-05)
(0 -0 -1.177846279e-05)
(0 -0 -1.181487807e-05)
(0 -0 -1.179468158e-05)
(0 -0 -1.168975609e-06)
(0 -0 -6.13232007e-07)
(0 -0 -2.84092787e-08)
(0 -0 5.304337219e-07)
(0 -0 1.045609791e-06)
(0 -0 1.510785648e-06)
(0 -0 1.923295729e-06)
(0 -0 2.280868154e-06)
(0 -0 2.580836579e-06)
(0 -0 2.820355928e-06)
(0 -0 2.996854036e-06)
(0 -0 3.108522635e-06)
(0 -0 3.154626569e-06)
(0 -0 3.135423251e-06)
(0 -0 3.051783407e-06)
(0 -0 2.904830307e-06)
(0 -0 2.695843919e-06)
(0 -0 2.426404315e-06)
(0 -0 2.09858845e-06)
(0 -0 1.715065259e-06)
(0 -0 1.279060514e-06)
(0 -0 7.942534445e-07)
(0 -0 2.646732805e-07)
(0 -0 -3.053728401e-07)
(0 -0 -9.113398276e-07)
(0 -0 -1.54846212e-06)
(0 -0 -2.211759817e-06)
(0 -0 -2.89604004e-06)
(0 -0 -3.595902144e-06)
(0 -0 -4.305760572e-06)
(0 -0 -5.019895013e-06)
(0 -0 -5.73253028e-06)
(0 -0 -6.437937566e-06)
(0 -0 -7.130534809e-06)
(0 -0 -7.804958557e-06)
(0 -0 -8.456095071e-06)
(0 -0 -9.079080847e-06)
(0 -0 -9.669291919e-06)
(0 -0 -1.022233034e-05)
(0 -0 -1.073401452e-05)
(0 -0 -1.120039457e-05)
(0 -0 -1.161781026e-05)
(0 -0 -1.198297554e-05)
(0 -0 -1.229305737e-05)
(0 -0 -1.254574047e-05)
(0 -0 -1.273928022e-05)
(0 -0 -1.287253534e-05)
(0 -0 -1.294497752e-05)
(0 -0 -1.295668272e-05)
(0 -0 -1.290831082e-05)
(0 -0 -1.826774373e-06)
(0 -0 -1.239520181e-06)
(0 -0 -6.26739518e-07)
(0 -0 -4.202830163e-08)
(0 -0 4.991471167e-07)
(0 -0 9.8971773e-07)
(0 -0 1.425401182e-06)
(0 -0 1.803077687e-06)
(0 -0 2.119920093e-06)
(0 -0 2.373069594e-06)
(0 -0 2.559874242e-06)
(0 -0 2.678414302e-06)
(0 -0 2.727880358e-06)
(0 -0 2.708504804e-06)
(0 -0 2.62116376e-06)
(0 -0 2.467007546e-06)
(0 -0 2.247376233e-06)
(0 -0 1.963966968e-06)
(0 -0 1.619042743e-06)
(0 -0 1.215513833e-06)
(0 -0 7.568688648e-07)
(0 -0 2.47040583e-07)
(0 -0 -3.097069476e-07)
(0 -0 -9.088324559e-07)
(0 -0 -1.545527839e-06)
(0 -0 -2.214713401e-06)
(0 -0 -2.911037274e-06)
(0 -0 -3.628886896e-06)
(0 -0 -4.36241563e-06)
(0 -0 -5.105589461e-06)
(0 -0 -5.852257299e-06)
(0 -0 -6.596239445e-06)
(0 -0 -7.331423146e-06)
(0 -0 -8.051853659e-06)
(0 -0 -8.751807161e-06)
(0 -0 -9.42582961e-06)
(0 -0 -1.006873864e-05)
(0 -0 -1.06756057e-05)
(0 -0 -1.124174153e-05)
(0 -0 -1.176269706e-05)
(0 -0 -1.223428916e-05)
(0 -0 -1.265266375e-05)
(0 -0 -1.301438888e-05)
(0 -0 -1.33165458e-05)
(0 -0 -1.355679897e-05)
(0 -0 -1.373345134e-05)
(0 -0 -1.384547339e-05)
(0 -0 -1.389249245e-05)
(0 -0 -1.387478154e-05)
(0 -0 -1.379329688e-05)
(0 -0 -2.326506239e-06)
(0 -0 -1.708444959e-06)
(0 -0 -1.064536771e-06)
(0 -0 -4.517865601e-07)
(0 -0 1.148950442e-07)
(0 -0 6.295097717e-07)
(0 -0 1.087659437e-06)
(0 -0 1.485416313e-06)
(0 -0 1.81932974e-06)
(0 -0 2.086286576e-06)
(0 -0 2.283544563e-06)
(0 -0 2.409118227e-06)
(0 -0 2.462140609e-06)
(0 -0 2.442813103e-06)
(0 -0 2.352009334e-06)
(0 -0 2.190907393e-06)
(0 -0 1.960918427e-06)
(0 -0 1.663867657e-06)
(0 -0 1.302200994e-06)
(0 -0 8.790457887e-07)
(0 -0 3.981167254e-07)
(0 -0 -1.364298351e-07)
(0 -0 -7.200986528e-07)
(0 -0 -1.348087976e-06)
(0 -0 -2.015280396e-06)
(0 -0 -2.716234077e-06)
(0 -0 -3.445192511e-06)
(0 -0 -4.196113398e-06)
(0 -0 -4.962713064e-06)
(0 -0 -5.738526053e-06)
(0 -0 -6.516982311e-06)
(0 -0 -7.291497051e-06)
(0 -0 -8.055561577e-06)
(0 -0 -8.802828259e-06)
(0 -0 -9.527185508e-06)
(0 -0 -1.022280835e-05)
(0 -0 -1.088416749e-05)
(0 -0 -1.150600429e-05)
(0 -0 -1.208330874e-05)
(0 -0 -1.261133011e-05)
(0 -0 -1.308562108e-05)
(0 -0 -1.350210978e-05)
(0 -0 -1.385719739e-05)
(0 -0 -1.41478628e-05)
(0 -0 -1.437174569e-05)
(0 -0 -1.452722396e-05)
(0 -0 -1.461340238e-05)
(0 -0 -1.463011056e-05)
(0 -0 -1.457792377e-05)
(0 -0 -1.445804188e-05)
(0 -0 -2.673753065e-06)
(0 -0 -2.02668761e-06)
(0 -0 -1.352094332e-06)
(0 -0 -7.105159819e-07)
(0 -0 -1.177452873e-07)
(0 -0 4.206598976e-07)
(0 -0 9.00651353e-07)
(0 -0 1.318034375e-06)
(0 -0 1.668837461e-06)
(0 -0 1.949566899e-06)
(0 -0 2.157297015e-06)