0 0 	0 	0 	
0.020202 0.144283 	-3.82223e-05 	0 	
0.040404 0.28824 	-7.65991e-05 	0 	
0.0606061 0.40883 	-0.000130388 	0 	
0.0808081 0.508467 	-0.000198265 	0 	
0.10101 0.606522 	-0.000267401 	0 	
0.121212 0.675989 	-0.000357573 	0 	
0.141414 0.745455 	-0.000447746 	0 	
0.161616 0.803092 	-0.000539411 	0 	
0.181818 0.852067 	-0.000632032 	0 	
0.20202 0.899583 	-0.00072397 	0 	
0.222222 0.934273 	-0.000809548 	0 	
0.242424 0.968963 	-0.000895125 	0 	
0.262626 0.997305 	-0.000974755 	0 	
0.282828 1.02187 	-0.00105081 	0 	
0.30303 1.04534 	-0.00112539 	0 	
0.323232 1.06269 	-0.00119155 	0 	
0.343434 1.08003 	-0.00125772 	0 	
0.363636 1.09387 	-0.00131733 	0 	
0.383838 1.10605 	-0.00137379 	0 	
0.40404 1.11747 	-0.00142838 	0 	
0.424242 1.12593 	-0.00147557 	0 	
0.444444 1.1344 	-0.00152276 	0 	
0.464646 1.14093 	-0.00156367 	0 	
0.484848 1.14674 	-0.0016022 	0 	
0.505051 1.15206 	-0.00163873 	0 	
0.525253 1.15596 	-0.00166925 	0 	
0.545455 1.15986 	-0.00169978 	0 	
0.565657 1.1627 	-0.00172459 	0 	
0.585859 1.16524 	-0.00174775 	0 	
0.606061 1.16748 	-0.00176886 	0 	
0.626263 1.16904 	-0.00178522 	0 	
0.646465 1.17059 	-0.00180159 	0 	
0.666667 1.17157 	-0.00181278 	0 	
0.686869 1.17243 	-0.00182287 	0 	
0.707071 1.17311 	-0.00183093 	0 	
0.727273 1.17347 	-0.00183522 	0 	
0.747475 1.17383 	-0.00183952 	0 	
0.767677 1.17388 	-0.00183911 	0 	
0.787879 1.17388 	-0.00183802 	0 	
0.808081 1.17377 	-0.00183494 	0 	
0.828283 1.17351 	-0.00182885 	0 	
0.848485 1.17325 	-0.00182277 	0 	
0.868687 1.17282 	-0.00181237 	0 	
0.888889 1.17237 	-0.00180162 	0 	
0.909091 1.17185 	-0.00178891 	0 	
0.929293 1.17125 	-0.0017738 	0 	
0.949495 1.17064 	-0.0017587 	0 	
0.969697 1.16992 	-0.00173962 	0 	
0.989899 1.16919 	-0.00172045 	0 	
1.0101 1.1684 	-0.00169937 	0 	
1.0303 1.16755 	-0.00167639 	0 	
1.05051 1.16669 	-0.00165332 	0 	
1.07071 1.16571 	-0.00162678 	0 	
1.09091 1.16472 	-0.00160025 	0 	
1.11111 1.16365 	-0.00157191 	0 	
1.13131 1.16251 	-0.00154207 	0 	
1.15152 1.16135 	-0.00151201 	0 	
1.17172 1.15999 	-0.00147912 	0 	
1.19192 1.15864 	-0.00144623 	0 	
1.21212 1.15712 	-0.00141166 	0 	
1.23232 1.15548 	-0.00137597 	0 	
1.25253 1.1538 	-0.00133997 	0 	
1.27273 1.15178 	-0.00130175 	0 	
1.29293 1.14976 	-0.00126354 	0 	
1.31313 1.1474 	-0.00122386 	0 	
1.33333 1.14484 	-0.0011834 	0 	
1.35354 1.14216 	-0.0011426 	0 	
1.37374 1.13888 	-0.00110022 	0 	
1.39394 1.13559 	-0.00105784 	0 	
1.41414 1.13159 	-0.00101437 	0 	
1.43434 1.12728 	-0.000970429 	0 	
1.45455 1.12267 	-0.000926236 	0 	
1.47475 1.11695 	-0.000881171 	0 	
1.49495 1.11124 	-0.000836105 	0 	
1.51515 1.10408 	-0.000790575 	0 	
1.53535 1.09644 	-0.000744891 	0 	
1.55556 1.08806 	-0.000699205 	0 	
1.57576 1.07774 	-0.000653519 	0 	
1.59596 1.06742 	-0.000607832 	0 	
1.61616 1.05417 	-0.00056274 	0 	
1.63636 1.04018 	-0.000517801 	0 	
1.65657 1.02455 	-0.000473397 	0 	
1.67677 1.00549 	-0.000430122 	0 	
1.69697 0.986432 	-0.000386847 	0 	
1.71717 0.96147 	-0.000345932 	0 	
1.73737 0.935448 	-0.000305441 	0 	
1.75758 0.905851 	-0.000266485 	0 	
1.77778 0.870242 	-0.000230109 	0 	
1.79798 0.834633 	-0.000193732 	0 	
1.81818 0.787162 	-0.000162398 	0 	
1.83838 0.738342 	-0.000131634 	0 	
1.85859 0.681802 	-0.000103931 	0 	
1.87879 0.614731 	-8.03927e-05 	0 	
1.89899 0.54766 	-5.68544e-05 	0 	
1.91919 0.456586 	-4.15836e-05 	0 	
1.93939 0.364195 	-2.67574e-05 	0 	
1.9596 0.255208 	-1.53476e-05 	0 	
1.9798 0.12773 	-7.65897e-06 	0 	
2 1.62463e-15 	-5.81802e-20 	0 	
