/*--------------------------------*- C++ -*----------------------------------*\
| =========                 |                                                 |
| \\      /  F ield         | foam-extend: Open Source CFD                    |
|  \\    /   O peration     | Version:     4.1                                |
|   \\  /    A nd           | Web:         http://www.foam-extend.org         |
|    \\/     M anipulation  |                                                 |
\*---------------------------------------------------------------------------*/
FoamFile
{
    version     2.0;
    format      ascii;
    class       volScalarField;
    location    "50000";
    object      p;
}
// * * * * * * * * * * * * * * * * * * * * * * * * * * * * * * * * * * * * * //

dimensions      [0 2 -2 0 0 0 0];

internalField   nonuniform List<scalar> 
15920
(
2.236690205e-08
1.954121329e-08
1.734782168e-08
1.622643013e-08
1.542506775e-08
1.459784023e-08
1.379222663e-08
1.308621107e-08
1.248316713e-08
1.196137136e-08
1.150974818e-08
1.11247956e-08
1.080143093e-08
1.053153809e-08
1.030607066e-08
1.011638843e-08
9.954540864e-09
9.813341302e-09
9.686499572e-09
9.568709714e-09
9.455634017e-09
9.343817235e-09
9.230574447e-09
9.113873019e-09
8.992217159e-09
8.864536767e-09
8.730140125e-09
8.588571506e-09
8.439562889e-09
8.282797864e-09
8.118414296e-09
7.94644414e-09
7.766827394e-09
7.579574098e-09
7.384759327e-09
7.182476548e-09
6.972830998e-09
6.755943916e-09
6.531914527e-09
6.300847522e-09
6.062876396e-09
5.818148073e-09
5.566818669e-09
5.309062787e-09
5.045078864e-09
4.775089396e-09
4.499341366e-09
4.218107795e-09
3.931688881e-09
3.640412196e-09
1.707074114e-08
1.67194598e-08
1.614990863e-08
1.561882433e-08
1.510443599e-08
1.452597792e-08
1.39090546e-08
1.330913664e-08
1.275205038e-08
1.224393832e-08
1.178858842e-08
1.138942041e-08
1.104606277e-08
1.075384291e-08
1.050571256e-08
1.029404723e-08
1.011144864e-08
9.951046748e-09
9.806704892e-09
9.673156709e-09
9.546032797e-09
9.421801477e-09
9.297671815e-09
9.171486246e-09
9.041610659e-09
8.906806607e-09
8.766104065e-09
8.618932482e-09
8.465120731e-09
8.304792419e-09
8.13723313e-09
7.962186195e-09
7.779771988e-09
7.590071047e-09
7.393101986e-09
7.188867385e-09
6.977509583e-09
6.759109018e-09
6.53352322e-09
6.300961226e-09
6.061653246e-09
5.815718341e-09
5.563266374e-09
5.304456983e-09
5.039487905e-09
4.768579631e-09
4.491975792e-09
4.209947509e-09
3.922794666e-09
3.630845324e-09
1.655187275e-08
1.638830972e-08
1.594539743e-08
1.538435416e-08
1.484231565e-08
1.432236399e-08
1.380497339e-08
1.330159473e-08
1.282949177e-08
1.239515369e-08
1.199898522e-08
1.164101631e-08
1.132074016e-08
1.103596119e-08
1.078314678e-08
1.055819215e-08
1.035684468e-08
1.01748493e-08
1.000807497e-08
9.852663747e-09
9.705143314e-09
9.562479328e-09
9.422082998e-09
9.281791982e-09
9.139834102e-09
8.99479221e-09
8.845583018e-09
8.691428623e-09
8.531770286e-09
8.366122343e-09
8.193949788e-09
8.014977229e-09
7.829123299e-09
7.636311483e-09
7.436462686e-09
7.22961234e-09
7.015768562e-09
6.79549548e-09
6.567665246e-09
6.332611594e-09
6.090696229e-09
5.842074576e-09
5.586873621e-09
5.325264516e-09
5.05745245e-09
4.78366632e-09
4.50416061e-09
4.219218498e-09
3.929151769e-09
3.634299922e-09
1.556571097e-08
1.542264766e-08
1.513812819e-08
1.477705104e-08
1.439970104e-08
1.401775353e-08
1.362500167e-08
1.322841985e-08
1.28425521e-08
1.247671867e-08
1.213420196e-08
1.181634129e-08
1.152395181e-08
1.125678247e-08
1.10133417e-08
1.079129563e-08
1.058787489e-08
1.040011159e-08
1.022498903e-08
1.005957763e-08
9.901147815e-09
9.747239076e-09
9.595689325e-09
9.444638606e-09
9.292517984e-09
9.138029783e-09
8.980119059e-09
8.81793839e-09
8.650811501e-09
8.478199424e-09
8.299663539e-09
8.114866627e-09
7.923576152e-09
7.725622319e-09
7.520893723e-09
7.309330923e-09
7.090585334e-09
6.863874216e-09
6.63076358e-09
6.391049423e-09
6.14445342e-09
5.891034117e-09
5.630979391e-09
5.36447905e-09
5.09172865e-09
4.812955068e-09
4.528422521e-09
4.238428353e-09
3.943300521e-09
3.643396918e-09
1.4937619e-08
1.486665316e-08
1.469469057e-08
1.444298441e-08
1.414972416e-08
1.383647558e-08
1.351000211e-08
1.317688665e-08
1.284675855e-08
1.252753401e-08
1.222343638e-08
1.193652149e-08
1.166795355e-08
1.141805099e-08
1.118613582e-08
1.097074115e-08
1.07699459e-08
1.058160806e-08
1.040349735e-08
1.023339407e-08
1.006917344e-08
9.908865503e-09
9.750687614e-09
9.59305703e-09
9.434591094e-09
9.274099217e-09
9.110569162e-09
8.94315093e-09
8.77113918e-09
8.59395045e-09
8.411095827e-09
8.222172131e-09
8.026889715e-09
7.824999521e-09
7.616130169e-09
7.400003229e-09
7.176581833e-09
6.946073426e-09
6.708811077e-09
6.464617508e-09
6.213318408e-09
5.954988209e-09
5.689814886e-09
5.417991208e-09
5.139720214e-09
4.855243324e-09
4.564845714e-09
4.268849775e-09
3.967610665e-09
3.661514832e-09
1.446168829e-08
1.441143149e-08
1.428570254e-08
1.409454132e-08
1.386428734e-08
1.361299597e-08
1.334802614e-08
1.307422723e-08
1.2797941e-08
1.252538389e-08
1.226080733e-08
1.200666145e-08
1.176438791e-08
1.153471142e-08
1.131762282e-08
1.11124636e-08
1.091812425e-08
1.073322085e-08
1.055620977e-08
1.038547145e-08
1.021938347e-08
1.005637966e-08
9.894990472e-09
9.733866573e-09
9.571790558e-09
9.407680696e-09
9.240588613e-09
9.069691727e-09
8.894283414e-09
8.713759079e-09
8.527581628e-09
8.335299162e-09
8.136508607e-09
7.930869476e-09
7.718242964e-09
7.498482436e-09
7.271499725e-09
7.037246958e-09
6.795674758e-09
6.546748843e-09
6.29047323e-09
6.026933631e-09
5.756280875e-09
5.478701213e-09
5.194414256e-09
4.903682303e-09
4.606812395e-09
4.304152287e-09
3.996086533e-09
3.683033988e-09
1.409045468e-08
1.405255254e-08
1.395884836e-08
1.381459415e-08
1.363605444e-08
1.34354666e-08
1.321907255e-08
1.299138383e-08
1.275755863e-08
1.252271461e-08
1.22907605e-08
1.20642521e-08
1.184482504e-08
1.163347458e-08
1.143060539e-08
1.123607453e-08
1.104930856e-08
1.086943609e-08
1.069539057e-08
1.052598657e-08
1.035998364e-08
1.019613967e-08
1.003325086e-08
9.870178724e-09
9.705866338e-09
9.539347387e-09
9.369748953e-09
9.196286026e-09
9.018260549e-09
8.835074548e-09
8.646200111e-09
8.451159656e-09
8.249537728e-09
8.041024197e-09
7.82538499e-09
7.602401544e-09
7.371891836e-09
7.133735388e-09
6.887881325e-09
6.634336876e-09
6.373133863e-09
6.104342364e-09
5.828091704e-09
5.544568632e-09
5.254009134e-09
4.956696403e-09
4.6529611e-09
4.343179475e-09
4.027769823e-09
3.707188681e-09
1.379945861e-08
1.377043091e-08
1.369843897e-08
1.358608555e-08
1.344393432e-08
1.328055991e-08
1.310113184e-08
1.290971172e-08
1.271052121e-08
1.250762111e-08
1.230428914e-08
1.210287812e-08
1.190501565e-08
1.171178198e-08
1.152377022e-08
1.134112339e-08
1.116360958e-08
1.099071592e-08
1.082173022e-08
1.065580432e-08
1.049200623e-08
1.032936473e-08
1.016690481e-08
1.000367371e-08
9.83875942e-09
9.671310824e-09
9.500529626e-09
9.325689212e-09
9.146127916e-09
8.9612286e-09
8.770450503e-09
8.573313663e-09
8.369398178e-09
8.15834873e-09
7.939866175e-09
7.713702266e-09
7.479663635e-09
7.237619025e-09
6.987496582e-09
6.729272569e-09
6.462964542e-09
6.18864157e-09
5.906436304e-09
5.616544641e-09
5.31921952e-09
5.014767716e-09
4.703549084e-09
4.385974619e-09
4.062502569e-09
3.733633643e-09
1.357002617e-08
1.354700845e-08
1.34898246e-08
1.339991195e-08
1.328470522e-08
1.315033412e-08
1.300070917e-08
1.283907651e-08
1.266878105e-08
1.249303957e-08
1.231455805e-08
1.213541632e-08
1.195714893e-08
1.178084123e-08
1.160717678e-08
1.143646991e-08
1.126871604e-08
1.110365555e-08
1.094083441e-08
1.077965493e-08
1.061941877e-08
1.045936462e-08
1.02986995e-08
1.013662553e-08
9.972332327e-09
9.805089151e-09
9.634163559e-09
9.458860861e-09
9.278539011e-09
9.092604019e-09
8.900516034e-09
8.701786992e-09
8.495979083e-09
8.282707266e-09
8.061642179e-09
7.832510231e-09
7.595092243e-09
7.349224793e-09
7.094801664e-09
6.83177432e-09
6.560153279e-09
6.280011525e-09
5.991488165e-09
5.694789026e-09
5.390184698e-09
5.078008453e-09
4.758654328e-09
4.432574146e-09
4.100272967e-09
3.762303394e-09
1.338930049e-08
1.337062122e-08
1.332421947e-08
1.325094395e-08
1.315623867e-08
1.304451018e-08
1.291859565e-08
1.278099753e-08
1.263437943e-08
1.248133248e-08
1.232408711e-08
1.216442878e-08
1.200373715e-08
1.184303617e-08
1.16830226e-08
1.152408974e-08
1.136636179e-08
1.12097379e-08
1.105393633e-08
1.089853348e-08
1.074299893e-08
1.058672922e-08
1.042906272e-08
1.026932523e-08
1.010684707e-08
9.940910509e-09
9.770850853e-09
9.596025941e-09
9.415818979e-09
9.229646744e-09
9.036964735e-09
8.837270117e-09
8.630104028e-09
8.415055103e-09
8.191763109e-09
7.959920971e-09
7.719276531e-09
7.469635886e-09
7.210867412e-09
6.942904866e-09
6.665749524e-09
6.379472412e-09
6.084217065e-09
5.780201432e-09
5.467717811e-09
5.14713116e-09
4.818876349e-09
4.483454207e-09
4.141426112e-09
3.793407174e-09
1.324807474e-08
1.323265714e-08
1.319435313e-08
1.313366251e-08
1.30547014e-08
1.29607137e-08
1.285376027e-08
1.273574841e-08
1.26087844e-08
1.24749447e-08
1.233604275e-08
1.219357037e-08
1.204872244e-08
1.190242088e-08
1.175532607e-08
1.160785064e-08
1.146018227e-08
1.131231429e-08
1.116407652e-08
1.101516753e-08
1.086516782e-08
1.07135973e-08
1.05599105e-08
1.040350606e-08
1.024377058e-08
1.00800722e-08
9.911786611e-09
9.738298437e-09
9.559004967e-09
9.373324561e-09
9.180703559e-09
8.980621359e-09
8.772594764e-09
8.556182561e-09
8.330990346e-09
8.096675172e-09
7.852950218e-09
7.5995898e-09
7.336434478e-09
7.063395709e-09
6.78045997e-09
6.487692658e-09
6.18524164e-09
5.873339669e-09
5.552304915e-09
5.222539567e-09
4.884526755e-09
4.538825807e-09
4.186065719e-09
3.826936853e-09
1.313943536e-08
1.312652877e-08
1.309445827e-08
1.304351389e-08
1.297689888e-08
1.289705903e-08
1.280549389e-08
1.270363638e-08
1.259313185e-08
1.247563201e-08
1.235260065e-08
1.222526813e-08
1.209464746e-08
1.196154393e-08
1.182655512e-08
1.16900761e-08
1.155231386e-08
1.14133166e-08
1.127296945e-08
1.113105434e-08
1.098724926e-08
1.084112751e-08
1.069221164e-08
1.053997463e-08
1.038385467e-08
1.022326597e-08
1.005760938e-08
9.886282268e-09
9.708685788e-09
9.524232084e-09
9.33235129e-09
9.132497909e-09
8.924156879e-09
8.706849806e-09
8.480141511e-09
8.243646775e-09
7.997037156e-09
7.74004793e-09
7.472485096e-09
7.194232212e-09
6.905256768e-09
6.605615857e-09
6.295460871e-09
5.97504072e-09
5.644703133e-09
5.304893746e-09
4.956152895e-09
4.599110043e-09
4.234475826e-09
3.86303183e-09
1.305806152e-08
1.304713529e-08
1.30199816e-08
1.297676038e-08
1.292001959e-08
1.285163805e-08
1.277270868e-08
1.268430018e-08
1.258769162e-08
1.2484193e-08
1.237498041e-08
1.226105792e-08
1.214326851e-08
1.202229719e-08
1.189866524e-08
1.177273042e-08
1.164466861e-08
1.151456782e-08
1.1382359e-08
1.12478414e-08
1.111073495e-08
1.097067601e-08
1.082723372e-08
1.067992199e-08
1.052821046e-08
1.037153577e-08
1.020931139e-08
1.004093695e-08
9.86580609e-09
9.683313642e-09
9.492863045e-09
9.293873842e-09
9.085789242e-09
8.86808394e-09
8.640272365e-09
8.401917324e-09
8.152638989e-09
7.89212414e-09
7.620135541e-09
7.33652119e-09
7.041223054e-09
6.734284916e-09
6.415858917e-09
6.08621031e-09
5.745719921e-09
5.394883882e-09
5.03431033e-09
4.664712928e-09
4.28690119e-09
3.901767778e-09
1.299976217e-08
1.299043372e-08
1.296724375e-08
1.29302694e-08
1.28815735e-08
1.282262321e-08
1.275421745e-08
1.267715002e-08
1.259241254e-08
1.250104133e-08
1.240397597e-08
1.230202627e-08
1.219588103e-08
1.208610734e-08
1.197314171e-08
1.185728902e-08
1.173874594e-08
1.161753181e-08
1.149359128e-08
1.136676169e-08
1.123678705e-08
1.110333062e-08
1.096598548e-08
1.082428548e-08
1.067771494e-08
1.052571791e-08
1.036770681e-08
1.020307053e-08
1.003118222e-08
9.851406838e-09
9.66310912e-09
9.465661779e-09
9.258454233e-09
9.04090184e-09
8.812455839e-09
8.572613993e-09
8.320931897e-09
8.057034799e-09
7.780629735e-09
7.491517647e-09
7.189605053e-09
6.874914749e-09
6.547594975e-09
6.207926389e-09
5.856326196e-09
5.493348834e-09
5.119682736e-09
4.736142873e-09
4.343658988e-09
3.943259751e-09
1.296116119e-08
1.295315205e-08
1.293322516e-08
1.290140502e-08
1.285938713e-08
1.280833444e-08
1.27488331e-08
1.268146986e-08
1.260700467e-08
1.252625771e-08
1.24399783e-08
1.234881287e-08
1.225331538e-08
1.215394766e-08
1.205106891e-08
1.194492504e-08
1.183565502e-08
1.172328293e-08
1.160774155e-08
1.148887044e-08
1.136641981e-08
1.124006082e-08
1.110939462e-08
1.097396024e-08
1.083324216e-08
1.068667766e-08
1.053366421e-08
1.037356672e-08
1.0205725e-08
1.002946132e-08
9.844088552e-09
9.648918954e-09
9.443273781e-09
9.226493878e-09
8.997951331e-09
8.757062244e-09
8.503300581e-09
8.23621292e-09
7.955433854e-09
7.660701653e-09
7.351873629e-09
7.028940564e-09
6.692039408e-09
6.341463377e-09
5.977668545e-09
5.601276072e-09
5.213069354e-09
4.813985553e-09
4.40510131e-09
3.987612836e-09
1.293948117e-08
1.293257941e-08
1.291539181e-08
1.288790978e-08
1.285153916e-08
1.280721075e-08
1.275535754e-08
1.26964279e-08
1.26309816e-08
1.255966885e-08
1.248308437e-08
1.24017398e-08
1.231607461e-08
1.222645523e-08
1.213316391e-08
1.203639005e-08
1.193622972e-08
1.183268586e-08
1.172567145e-08
1.161501351e-08
1.150045671e-08
1.138166882e-08
1.125824668e-08
1.11297218e-08
1.099556602e-08
1.085519733e-08
1.07079859e-08
1.055326041e-08
1.039031473e-08
1.021841516e-08
1.003680855e-08
9.844731388e-09
9.641420229e-09
9.426123476e-09
9.198114776e-09
8.956708046e-09
8.701274123e-09
8.431258897e-09
8.146202622e-09
7.845759941e-09
7.529719978e-09
7.198025634e-09
6.850791085e-09
6.488316285e-09
6.111097202e-09
5.719830531e-09
5.315411784e-09
4.898925894e-09
4.471629902e-09
4.034927839e-09
1.29324463e-08
1.292646306e-08
1.291160749e-08
1.288785078e-08
1.285635592e-08
1.281787041e-08
1.277270616e-08
1.272116693e-08
1.266374257e-08
1.260092593e-08
1.253316983e-08
1.246087361e-08
1.238438221e-08
1.230398015e-08
1.221988139e-08
1.213222159e-08
1.204105496e-08
1.194635329e-08
1.184800618e-08
1.174582291e-08
1.163953441e-08
1.152879585e-08
1.141318997e-08
1.129223072e-08
1.116536722e-08
1.103198784e-08
1.089142479e-08
1.074295916e-08
1.058582663e-08
1.041922412e-08
1.024231751e-08
1.005425091e-08
9.854157563e-09
9.641172727e-09
9.414448749e-09
9.173172453e-09
8.916584901e-09
8.644003413e-09
8.354845549e-09
8.048654563e-09
7.725125521e-09
7.384131038e-09
7.025745292e-09
6.650264738e-09
6.258223727e-09
5.850403194e-09
5.427830676e-09
4.991770298e-09
4.543701893e-09
4.085289192e-09
1.293801825e-08
1.293283003e-08
1.291999885e-08
1.289948987e-08
1.287226562e-08
1.283892654e-08
1.279970235e-08
1.27548271e-08
1.270466012e-08
1.264958909e-08
1.258996761e-08
1.252610448e-08
1.245826445e-08
1.238666206e-08
1.231145167e-08
1.223271976e-08
1.215048074e-08
1.206467472e-08
1.197516611e-08
1.188174308e-08
1.178411761e-08
1.168192615e-08
1.157473085e-08
1.146202127e-08
1.134321633e-08
1.121766668e-08
1.108465758e-08
1.094341248e-08
1.079309745e-08
1.063282683e-08
1.046167031e-08
1.027866189e-08
1.008281101e-08
9.873116242e-09
9.648581954e-09
9.408238059e-09
9.151163174e-09
8.87651107e-09
8.583540227e-09
8.271645966e-09
7.940394282e-09
7.589556078e-09
7.219140078e-09
6.829422304e-09
6.420969642e-09
5.994654805e-09
5.551660019e-09
5.093467174e-09
4.621832907e-09
4.138748184e-09
1.295440266e-08
1.294995622e-08
1.293894603e-08
1.292133223e-08
1.289792193e-08
1.286920441e-08
1.283534859e-08
1.279652463e-08
1.27530038e-08
1.270509072e-08
1.265306147e-08
1.259715177e-08
1.253755964e-08
1.247444071e-08
1.240789862e-08
1.233797715e-08
1.226465518e-08
1.218784337e-08
1.210738126e-08
1.202303505e-08
1.193449589e-08
1.184137884e-08
1.174322208e-08
1.163948666e-08
1.152955641e-08
1.141273846e-08
1.128826419e-08
1.115529103e-08
1.101290527e-08
1.086012624e-08
1.069591226e-08
1.051916878e-08
1.032875928e-08
1.012351939e-08
9.902274759e-09
9.663863128e-09
9.407161018e-09
9.13111513e-09
8.834778436e-09
8.517350484e-09
8.178221005e-09
7.817015327e-09
7.433639433e-09
7.028321852e-09
6.601648963e-09
6.154589805e-09
5.688506334e-09
5.205145393e-09
4.706609615e-09
4.19530604e-09
1.298012682e-08
1.297635068e-08
1.296698374e-08
1.295198484e-08
1.29320315e-08
1.290752396e-08
1.287858563e-08
1.284533977e-08
1.280799529e-08
1.276678975e-08
1.272193621e-08
1.267361234e-08
1.26219631e-08
1.256709679e-08
1.250907588e-08
1.244790889e-08
1.238354485e-08
1.231586893e-08
1.224469855e-08
1.216977967e-08
1.209078358e-08
1.200730403e-08
1.191885464e-08
1.182486657e-08
1.172468646e-08
1.161757472e-08
1.150270438e-08
1.13791607e-08
1.124594183e-08
1.110196102e-08
1.094605073e-08
1.077696932e-08
1.059341103e-08
1.039401975e-08
1.017740767e-08
9.942179213e-09
9.686961181e-09
9.410439504e-09
9.111402778e-09
8.788792405e-09
8.441758465e-09
8.069719724e-09
7.672425183e-09
7.250013521e-09
6.803065737e-09
6.332645391e-09
5.84032028e-09
5.328159465e-09
4.798700656e-09
4.254885105e-09
1.301379449e-08
1.301062677e-08
1.300276357e-08
1.299016604e-08
1.297339684e-08
1.295278225e-08
1.292841381e-08
1.290038219e-08
1.286884939e-08
1.283400057e-08
1.279599972e-08
1.275498033e-08
1.271104713e-08
1.266427206e-08
1.261468563e-08
1.2562269e-08
1.250694798e-08
1.244858795e-08
1.238698893e-08
1.232188064e-08
1.225291783e-08
1.217967572e-08
1.210164556e-08
1.201823023e-08
1.192874001e-08
1.183238844e-08
1.172828868e-08
1.161545049e-08
1.149277814e-08
1.135906989e-08
1.121301949e-08
1.105322049e-08
1.087817415e-08
1.068630209e-08
1.047596448e-08
1.024548522e-08
9.993185003e-09
9.71742337e-09
9.416650459e-09
9.089468636e-09
8.734703498e-09
8.351482713e-09
7.939319783e-09
7.498198181e-09
7.028649569e-09
6.531818107e-09
6.009501553e-09
5.464159371e-09
4.898879031e-09
4.317294465e-09
1.305412898e-08
1.305152461e-08
1.30450579e-08
1.303469492e-08
1.30208957e-08
1.300392478e-08
1.298385275e-08
1.296074894e-08
1.293474085e-08
1.290597431e-08
1.287457691e-08
1.284064986e-08
1.280426867e-08
1.276547896e-08
1.272428848e-08
1.268065942e-08
1.263450204e-08
1.258566896e-08
1.253394925e-08
1.247906244e-08
1.24206524e-08
1.235828122e-08
1.229142285e-08
1.221945664e-08
1.214166063e-08
1.205720483e-08
1.196514464e-08
1.186441458e-08
1.175382286e-08
1.163204719e-08
1.149763265e-08
1.134899228e-08
1.118441173e-08
1.100205898e-08
1.080000084e-08
1.057622773e-08
1.032868856e-08
1.005533744e-08
9.754193771e-09
9.423416763e-09
9.061394587e-09
8.66684705e-09
8.238938911e-09
7.777398524e-09
7.282633642e-09
6.755833208e-09
6.19904117e-09
5.615186547e-09
5.008054342e-09
4.382185364e-09
1.309994629e-08
1.309787028e-08
1.309271461e-08
1.308445263e-08
1.307345249e-08
1.305992685e-08
1.304393381e-08
1.302553046e-08
1.300482011e-08
1.298192027e-08
1.295693286e-08
1.292993717e-08
1.290098949e-08
1.287011884e-08
1.283731952e-08
1.280254355e-08
1.276569414e-08
1.27266193e-08
1.268510517e-08
1.264086897e-08
1.259355166e-08
1.254271021e-08
1.248780934e-08
1.242821287e-08
1.236317446e-08
1.229182794e-08
1.221317735e-08
1.212608692e-08
1.202927138e-08
1.192128713e-08
1.180052511e-08
1.166520621e-08
1.151338066e-08
1.134293284e-08
1.115159364e-08
1.093696255e-08
1.069654212e-08
1.042778753e-08
1.012817416e-08
9.795285511e-09
9.426923101e-09
9.021238524e-09
8.576885279e-09
8.093184926e-09
7.570297611e-09
7.009381923e-09
6.412723615e-09
5.783808046e-09
5.127309065e-09
4.448970334e-09
1.315013496e-08
1.31485591e-08
1.314464512e-08
1.313837555e-08
1.313003551e-08
1.311979374e-08
1.310770261e-08
1.309381445e-08
1.307821708e-08
1.306100896e-08
1.304227581e-08
1.302208436e-08
1.300048105e-08
1.297748762e-08
1.295309406e-08
1.292725136e-08
1.28998647e-08
1.287078667e-08
1.283980984e-08
1.280665888e-08
1.277098195e-08
1.273234147e-08
1.269020406e-08
1.26439296e-08
1.259275925e-08
1.253580264e-08
1.247202408e-08
1.240022815e-08
1.231904492e-08
1.222691531e-08
1.212207743e-08
1.200255486e-08
1.186614837e-08
1.171043307e-08
1.153276326e-08
1.13302882e-08
1.109998238e-08
1.083869444e-08
1.05432194e-08
1.021039875e-08
9.837252505e-09
9.421145695e-09
8.959989117e-09
8.452469643e-09
7.898299088e-09
7.298462373e-09
6.655436366e-09
5.973341055e-09
5.257977117e-09
4.516702114e-09
1.320364256e-08
1.320254328e-08
1.319981281e-08
1.319544426e-08
1.318964707e-08
1.318255267e-08
1.317421333e-08
1.316468284e-08
1.315404092e-08
1.314237502e-08
1.312976302e-08
1.311626759e-08
1.310193399e-08
1.308678551e-08
1.307081687e-08
1.305398727e-08
1.303621349e-08
1.301736272e-08
1.299724459e-08
1.297560252e-08
1.295210405e-08
1.292633021e-08
1.289776374e-08
1.286577585e-08
1.282961155e-08
1.278837341e-08
1.274100367e-08
1.268626484e-08
1.262271904e-08
1.254870624e-08
1.246232245e-08
1.236139859e-08
1.224348168e-08
1.210582055e-08
1.194535889e-08
1.175873933e-08
1.154232366e-08
1.12922349e-08
1.100442842e-08
1.067479957e-08
1.029933619e-08
9.874322614e-09
9.396599802e-09
8.863880323e-09
8.275108285e-09
7.630840954e-09
6.933612429e-09
6.188221496e-09
5.401870782e-09
4.584074611e-09
1.325946621e-08
1.325882286e-08
1.325722476e-08
1.32546767e-08
1.325131869e-08
1.324725045e-08
1.32425288e-08
1.323721423e-08
1.323138465e-08
1.322512355e-08
1.32185083e-08
1.321160524e-08
1.320446645e-08
1.319712521e-08
1.31895898e-08
1.318183696e-08
1.3173805e-08
1.31653864e-08
1.315641947e-08
1.31466791e-08
1.313586623e-08
1.31235961e-08
1.310938476e-08
1.309263382e-08
1.307261308e-08
1.304844084e-08
1.301906175e-08
1.2983222e-08
1.293944194e-08
1.288598624e-08
1.28208321e-08
1.274163629e-08
1.264570254e-08
1.252995131e-08
1.239089524e-08
1.222462453e-08
1.202680848e-08
1.179272082e-08
1.151729919e-08
1.11952504e-08
1.082121543e-08
1.039000837e-08
9.896942194e-09
9.338249426e-09
8.71159542e-09
8.016662827e-09
7.255756602e-09
6.434338437e-09
5.561362185e-09
4.649256855e-09
1.331664656e-08
1.331644001e-08
1.331592689e-08
1.331512443e-08
1.331410872e-08
1.331295255e-08
1.331172114e-08
1.33104861e-08
1.330932888e-08
1.330833511e-08
1.330758822e-08
1.33071651e-08
1.33071321e-08
1.330754036e-08
1.330842025e-08
1.330977527e-08
1.33115753e-08
1.331374917e-08
1.33161762e-08
1.331867655e-08
1.332100019e-08
1.332281416e-08
1.332368786e-08
1.332307596e-08
1.332029859e-08
1.331451845e-08
1.330471439e-08
1.328965107e-08
1.326784448e-08
1.3237523e-08
1.319658425e-08
1.314254794e-08
1.307250585e-08
1.298307079e-08
1.287032743e-08
1.272978984e-08
1.255637252e-08
1.234438465e-08
1.208756078e-08
1.177914539e-08
1.141205273e-08
1.097912702e-08
1.047352946e-08
9.889276385e-09
9.221944311e-09
8.469539149e-09
7.633489172e-09
6.719653325e-09
5.739129042e-09
4.708501424e-09
1.33742646e-08
1.337447616e-08
1.337500159e-08
1.337587116e-08
1.337710197e-08
1.337874403e-08
1.338087413e-08
1.338357861e-08
1.338694704e-08
1.339107246e-08
1.339605007e-08
1.340197347e-08
1.340892996e-08
1.341699584e-08
1.342623162e-08
1.343667638e-08
1.344834147e-08
1.346120321e-08
1.347519453e-08
1.349019534e-08
1.350602128e-08
1.352241046e-08
1.35390079e-08
1.355534712e-08
1.357082842e-08
1.358469321e-08
1.359599373e-08
1.360355753e-08
1.360594583e-08
1.360140522e-08
1.358781214e-08
1.356260964e-08
1.352273687e-08
1.346455201e-08
1.338375108e-08
1.32752866e-08
1.313329303e-08
1.295102976e-08
1.272085775e-08
1.243427256e-08
1.208202548e-08
1.165437343e-08
1.114150599e-08
1.05342012e-08
9.824753988e-09
9.008202384e-09
8.083837529e-09
7.056938322e-09
5.940537556e-09
4.756710919e-09
1.343144082e-08
1.343205129e-08
1.343356756e-08
1.34360333e-08
1.343941125e-08
1.344373221e-08
1.344908707e-08
1.34555798e-08
1.346331193e-08
1.347238833e-08
1.348292089e-08
1.349502523e-08
1.350881546e-08
1.352439963e-08
1.354187565e-08
1.356132645e-08
1.358281419e-08
1.36063734e-08
1.363200311e-08
1.36596575e-08
1.368923492e-08
1.372056466e-08
1.375339112e-08
1.378735483e-08
1.382196947e-08
1.385659437e-08
1.389040119e-08
1.392233402e-08
1.395106143e-08
1.397491929e-08
1.399184278e-08
1.399928638e-08
1.399413064e-08
1.397257505e-08
1.393001753e-08
1.386092281e-08
1.37586848e-08
1.361549277e-08
1.342221824e-08
1.316834924e-08
1.28420124e-08
1.243014325e-08
1.191888771e-08
1.129434391e-08
1.054375664e-08
9.657264611e-09
8.630180058e-09
7.465699639e-09
6.17780091e-09
4.794113541e-09
1.348733623e-08
1.348832515e-08
1.349078147e-08
1.349476233e-08
1.350018053e-08
1.350705081e-08
1.351548011e-08
1.352559219e-08
1.35375036e-08
1.355133469e-08
1.356721802e-08
1.35852957e-08
1.360571358e-08
1.362861701e-08
1.365414769e-08
1.368243965e-08
1.371361429e-08
1.374777423e-08
1.378499622e-08
1.38253226e-08
1.386875103e-08
1.391522196e-08
1.396460331e-08
1.401667173e-08
1.407108957e-08
1.41273766e-08
1.418487523e-08
1.424270762e-08
1.42997232e-08
1.435443413e-08
1.440493648e-08
1.444881434e-08
1.448302383e-08
1.450375402e-08
1.450626225e-08
1.448468231e-08
1.443180663e-08
1.433884787e-08
1.419519286e-08
1.398817404e-08
1.37029018e-08
1.33222284e-08
1.282695364e-08
1.219645911e-08
1.14100109e-08
1.044916811e-08
9.301447383e-09
7.965582742e-09
6.456820223e-09
4.811292342e-09
1.354115494e-08
1.354250004e-08
1.354584105e-08
1.355124847e-08
1.355858947e-08
1.356786553e-08
1.357920086e-08
1.359274058e-08
1.36086185e-08
1.362697327e-08
1.36479612e-08
1.367175427e-08
1.369853393e-08
1.37284873e-08
1.376180491e-08
1.37986779e-08
1.383929394e-08
1.388383216e-08
1.393245718e-08
1.398531186e-08
1.404250829e-08
1.410411671e-08
1.417015151e-08
1.424055392e-08
1.431517014e-08
1.439372399e-08
1.447578244e-08
1.456071226e-08
1.464762547e-08
1.47353107e-08
1.482214685e-08
1.490599483e-08
1.498406208e-08
1.505273368e-08
1.510736326e-08
1.514201644e-08
1.514916023e-08
1.511929487e-08
1.504053064e-08
1.489812497e-08
1.467401639e-08
1.434642433e-08
1.388962904e-08
1.32741227e-08
1.246738358e-08
1.143613505e-08
1.015033488e-08
8.59346756e-09
6.774003106e-09
4.747760703e-09
1.359214805e-08
1.359382477e-08
1.359798948e-08
1.360472569e-08
1.361385917e-08
1.36253806e-08
1.363943216e-08
1.365618105e-08
1.367577986e-08
1.369838747e-08
1.372418603e-08
1.375337966e-08
1.378618802e-08
1.382284303e-08
1.386358768e-08
1.390867449e-08
1.395836259e-08
1.401291401e-08
1.407258916e-08
1.413764129e-08
1.420830946e-08
1.428480946e-08
1.436732227e-08
1.445597919e-08
1.455084276e-08
1.465188214e-08
1.475894145e-08
1.487169882e-08
1.498961354e-08
1.511185782e-08
1.523722856e-08
1.536403329e-08
1.548994265e-08
1.561179996e-08
1.572537539e-08
1.582504998e-08
1.59034114e-08
1.595074162e-08
1.595437835e-08
1.589793885e-08
1.576042176e-08
1.551523806e-08
1.512933853e-08
1.45626111e-08
1.376796738e-08
1.269239801e-08
1.127836597e-08
9.474603374e-09
7.238448997e-09
4.626497186e-09
1.363961832e-08
1.364159956e-08
1.364652064e-08
1.365447743e-08
1.366525866e-08
1.367884632e-08
1.369540059e-08
1.371511081e-08
1.373814904e-08
1.376469538e-08
1.379495885e-08
1.382917679e-08
1.386760831e-08
1.391053158e-08
1.395824392e-08
1.401106145e-08
1.40693177e-08
1.413336132e-08
1.420355346e-08
1.428026431e-08
1.43638685e-08
1.445473888e-08
1.455323819e-08
1.465970796e-08
1.477445365e-08
1.48977249e-08
1.502968915e-08
1.51703966e-08
1.531973352e-08
1.547736017e-08
1.564262807e-08
1.581446979e-08
1.599125178e-08
1.617057757e-08
1.634902406e-08
1.652178748e-08
1.668220729e-08
1.682112548e-08
1.69260267e-08
1.697988982e-08
1.695968834e-08
1.683447161e-08
1.65632005e-08
1.609236991e-08
1.535541951e-08
1.427222627e-08
1.275678615e-08
1.072093175e-08
8.052972032e-09
4.747851222e-09
1.36829256e-08
1.368518155e-08
1.369078491e-08
1.369984309e-08
1.371211212e-08
1.372756713e-08
1.374638573e-08
1.376877873e-08
1.379493752e-08
1.38250635e-08
1.385939249e-08
1.389819484e-08
1.394176884e-08
1.399043873e-08
1.404455592e-08
1.410450018e-08
1.41706796e-08
1.424353013e-08
1.432351493e-08
1.441112338e-08
1.450686937e-08
1.461128842e-08
1.472493345e-08
1.484836841e-08
1.498215911e-08
1.512686014e-08
1.528299642e-08
1.545103742e-08
1.563136126e-08
1.582420505e-08
1.602959623e-08
1.624725775e-08
1.647647704e-08
1.67159246e-08
1.696340195e-08
1.72154899e-08
1.746705479e-08
1.771054974e-08
1.793501762e-08
1.81246502e-08
1.825669792e-08
1.829836354e-08
1.820241743e-08
1.790039141e-08
1.729608385e-08
1.625217321e-08
1.461126241e-08
1.216705178e-08
8.818706186e-09
4.534314464e-09
1.37214925e-08
1.37239906e-08
1.373019538e-08
1.374022467e-08
1.375380622e-08
1.377090989e-08
1.379172957e-08
1.381649607e-08
1.384541924e-08
1.387872093e-08
1.391666256e-08
1.395954597e-08
1.400770685e-08
1.406151345e-08
1.412136905e-08
1.41877145e-08
1.426102973e-08
1.434183514e-08
1.443069304e-08
1.452820932e-08
1.463503485e-08
1.475186641e-08
1.487944695e-08
1.501856483e-08
1.517005133e-08
1.533477571e-08
1.551363676e-08
1.57075491e-08
1.591742218e-08
1.614412868e-08
1.638845786e-08
1.665104755e-08
1.693228551e-08
1.723216687e-08
1.755008816e-08
1.788454895e-08
1.823271764e-08
1.858979367e-08
1.894805995e-08
1.929544737e-08
1.961331959e-08
1.987289689e-08
2.002946894e-08
2.001169378e-08
1.970520435e-08
1.891042901e-08
1.732046838e-08
1.430152841e-08
9.376723885e-09
1.392392025e-09
1.375481012e-08
1.375751519e-08
1.3764234e-08
1.377509346e-08
1.378979758e-08
1.380831222e-08
1.383084585e-08
1.385764721e-08
1.388894292e-08
1.39249735e-08
1.396602375e-08
1.401242417e-08
1.406454454e-08
1.412279329e-08
1.418762113e-08
1.42595249e-08
1.433905063e-08
1.442679658e-08
1.452341696e-08
1.46296261e-08
1.47462031e-08
1.487399658e-08
1.501392977e-08
1.516700547e-08
1.533431085e-08
1.551702146e-08
1.571640385e-08
1.593381582e-08
1.61707028e-08
1.642858819e-08
1.670905444e-08
1.701371014e-08
1.734413612e-08
1.77018003e-08
1.808792567e-08
1.85032884e-08
1.894791085e-08
1.942059499e-08
1.99182107e-08
2.043459871e-08
2.095885581e-08
2.147256126e-08
2.194519832e-08
2.232567877e-08
2.252729118e-08
2.238772386e-08
2.160785559e-08
1.939621902e-08
1.451299168e-08
3.194067489e-10
1.378244357e-08
1.378531803e-08
1.37924575e-08
1.380399647e-08
1.381961977e-08
1.383929037e-08
1.386322907e-08
1.389169984e-08
1.392494369e-08
1.396321726e-08
1.400682546e-08
1.405612341e-08
1.411151024e-08
1.417342901e-08
1.424237137e-08
1.431888261e-08
1.440356602e-08
1.449708763e-08
1.46001818e-08
1.471365787e-08
1.483840774e-08
1.497541433e-08
1.512576113e-08
1.529064281e-08
1.547137701e-08
1.566941721e-08
1.588636644e-08
1.612399165e-08
1.638423799e-08
1.666924217e-08
1.698134308e-08
1.732308705e-08
1.76972237e-08