/*--------------------------------*- C++ -*----------------------------------*\
| =========                 |                                                 |
| \\      /  F ield         | foam-extend: Open Source CFD                    |
|  \\    /   O peration     | Version:     4.1                                |
|   \\  /    A nd           | Web:         http://www.foam-extend.org         |
|    \\/     M anipulation  |                                                 |
\*---------------------------------------------------------------------------*/
FoamFile
{
    version     2.0;
    format      ascii;
    class       surfaceScalarField;
    location    "50000";
    object      phi;
}
// * * * * * * * * * * * * * * * * * * * * * * * * * * * * * * * * * * * * * //

dimensions      [0 3 -1 0 0 0 0];

internalField   nonuniform List<scalar> 
31542
(
1.062571942e-07
3.072805767e-09
1.006323326e-07
5.624861606e-09
9.413983422e-08
6.492498387e-09
8.737128816e-08
6.768546064e-09
8.060719439e-08
6.764093773e-09
7.410599979e-08
6.501194609e-09
6.80407762e-08
6.065223596e-09
6.250594563e-08
5.534830575e-09
5.754628632e-08
4.959659309e-09
5.317167501e-08
4.374611301e-09
4.936743711e-08
3.804237896e-09
4.61007932e-08
3.266643904e-09
4.332710657e-08
2.773686624e-09
4.099568102e-08
2.331425549e-09
3.90540676e-08
1.941613413e-09
3.74509716e-08
1.603096001e-09
3.613815469e-08
1.312816911e-09
3.507158983e-08
1.066564865e-09
3.421203788e-08
8.59551948e-10
3.352520554e-08
6.868323421e-10
3.298162279e-08
5.435827605e-10
3.255634092e-08
4.252818737e-10
3.222852156e-08
3.278193731e-10
3.198096409e-08
2.475574771e-10
3.17995852e-08
1.813788982e-10
3.167281211e-08
1.267731032e-10
3.159176884e-08
8.104328058e-11
3.154972918e-08
4.203966501e-11
3.154231759e-08
7.41160164e-12
3.156320951e-08
-2.089191397e-11
3.160900874e-08
-4.579921719e-11
3.167697166e-08
-6.796291102e-11
3.176461197e-08
-8.764029292e-11
3.18699044e-08
-1.052924166e-10
3.19911738e-08
-1.212693972e-10
3.212692579e-08
-1.357519825e-10
3.227588583e-08
-1.489600485e-10
3.243709262e-08
-1.612067923e-10
3.260941608e-08
-1.723234729e-10
3.279154309e-08
-1.821270143e-10
3.298218412e-08
-1.906410392e-10
3.318006106e-08
-1.978769463e-10
3.338385402e-08
-2.037929725e-10
3.359219753e-08
-2.083435109e-10
3.380369327e-08
-2.114957435e-10
3.401691678e-08
-2.132235223e-10
3.423042208e-08
-2.135053095e-10
3.444274922e-08
-2.123271532e-10
3.465243402e-08
-2.096848174e-10
-2.055840552e-10
3.485801807e-08
1.113825163e-07
1.020289503e-09
1.139961864e-07
3.011191517e-09
1.160906666e-07
4.398018145e-09
1.174769926e-07
5.382220063e-09
1.181148089e-07
6.126277401e-09
1.179997696e-07
6.616233938e-09
1.17225332e-07
6.839661134e-09
1.159197259e-07
6.840436703e-09
1.142093897e-07
6.669995533e-09
1.122123179e-07
6.371683105e-09
1.100334682e-07
5.983087532e-09
1.077614227e-07
5.538689391e-09
1.054677407e-07
5.067368658e-09
1.032080069e-07
4.59115939e-09
1.0102346e-07
4.126160312e-09
9.894309863e-08
3.683457333e-09
9.69858506e-08
3.27006493e-09
9.516265704e-08
2.889758418e-09
9.347837023e-08
2.543838749e-09
9.193337803e-08
2.231824527e-09
9.052492581e-08
1.952034977e-09
8.924815505e-08
1.702052617e-09
8.809689657e-08
1.479077848e-09
8.706426253e-08
1.280191519e-09
8.614313072e-08
1.10251071e-09
8.532662744e-08
9.432764021e-10
8.460774074e-08
7.999299983e-10
8.397952584e-08
6.70254581e-10
8.343442296e-08
5.525145091e-10
8.296798484e-08
4.455462217e-10
8.257455694e-08
3.476287129e-10
8.224904907e-08
2.575449772e-10
8.198692498e-08
1.744838062e-10
8.178390059e-08
9.773198329e-11
8.163606727e-08
2.656392104e-11
8.153935093e-08
-3.903563569e-11
8.149035857e-08
-9.996768808e-11
8.148640693e-08
-1.572551594e-10
8.152350067e-08
-2.094172152e-10
8.159821573e-08
-2.56842075e-10
8.170741437e-08
-2.998396795e-10
8.184802737e-08
-3.384899524e-10
8.201705026e-08
-3.728158672e-10
8.221154892e-08
-4.028421782e-10
8.242864598e-08
-4.285927967e-10
8.266551145e-08
-4.500889871e-10
8.291936043e-08
-4.673542703e-10
8.318745263e-08
-4.804193162e-10
8.346709205e-08
-4.893241981e-10
-4.941198259e-10
8.375562786e-08
1.096501573e-07
7.001321499e-10
1.107430001e-07
1.918348811e-09
1.122130157e-07
2.928002556e-09
1.138801005e-07
3.715135224e-09
1.156547812e-07
4.351596716e-09
1.174094458e-07
4.86156928e-09
1.190192845e-07
5.22982247e-09
1.204040374e-07
5.455683757e-09
1.215196224e-07
5.554410603e-09
1.223481891e-07
5.543116395e-09
1.228929949e-07
5.438281719e-09
1.231740135e-07
5.257670776e-09
1.232216889e-07
5.019693264e-09
1.230712372e-07
4.741611074e-09
1.227588997e-07
4.438497861e-09
1.223194625e-07
4.122894522e-09
1.217847826e-07
3.804744841e-09
1.211829957e-07
3.491545245e-09
1.205382424e-07
3.188592118e-09
1.198707424e-07
2.899324508e-09
1.191970793e-07
2.625698082e-09
1.185305931e-07
2.368538808e-09
1.178818181e-07
2.127852928e-09
1.172589242e-07
1.903085405e-09
1.166681097e-07
1.693325212e-09
1.161139148e-07
1.497471336e-09
1.155994881e-07
1.314356637e-09
1.151269037e-07
1.142839016e-09
1.14697542e-07
9.818762385e-10
1.143124899e-07
8.305983103e-10
1.139719246e-07
6.881940494e-10
1.136755746e-07
5.538949717e-10
1.134229655e-07
4.270929716e-10
1.132133806e-07
3.073168357e-10
1.130457028e-07
1.942417464e-10
1.129187323e-07
8.793484391e-11
1.128292688e-07
-1.05041788e-11
1.127787072e-07
-1.066936015e-10
1.12763769e-07
-1.944790249e-10
1.127832876e-07
-2.763606104e-10
1.128357406e-07
-3.522926968e-10
1.129194417e-07
-4.221910676e-10
1.130326631e-07
-4.860373434e-10
1.131736195e-07
-5.437985369e-10
1.133404472e-07
-5.954204832e-10
1.135312075e-07
-6.408493842e-10
1.137438981e-07
-6.800448363e-10
1.139764644e-07
-7.129855916e-10
1.142268099e-07
-7.3966969e-10
-7.601146694e-10
1.144928047e-07
1.095680777e-07
4.620544283e-10
1.101009587e-07
1.385467784e-09
1.10830368e-07
2.198593252e-09
1.11683089e-07
2.862414271e-09
1.1264602e-07
3.388665675e-09
1.137088925e-07
3.798696843e-09
1.148389421e-07
4.099772842e-09
1.159970233e-07
4.297602536e-09
1.171472264e-07
4.404207511e-09
1.182571381e-07
4.433204701e-09
1.192989761e-07
4.396443731e-09
1.202519356e-07
4.304711297e-09
1.21103036e-07
4.168592786e-09
1.218464258e-07
3.998221308e-09
1.224822043e-07
3.802719349e-09
1.230150964e-07
3.590002452e-09
1.234530863e-07
3.366754879e-09
1.238061805e-07
3.13845104e-09
1.240853712e-07
2.909401421e-09
1.243018479e-07
2.682847867e-09
1.244664444e-07
2.461101555e-09
1.245892843e-07
2.245698867e-09
1.246795808e-07
2.037556438e-09
1.247455502e-07
1.837116102e-09
1.24794401e-07
1.644474329e-09
1.248323795e-07
1.459492905e-09
1.24864848e-07
1.281888149e-09
1.248963802e-07
1.111306812e-09
1.24930863e-07
9.473934058e-10
1.249716166e-07
7.898447926e-10
1.250214184e-07
6.383921949e-10
1.250825433e-07
4.927701028e-10
1.251568779e-07
3.527583666e-10
1.25245935e-07
2.182597489e-10
1.253506921e-07
8.948470819e-11
1.254719743e-07
-3.334737326e-11
1.256120153e-07
-1.505452319e-10
1.257681489e-07
-2.628271583e-10
1.259427084e-07
-3.690385643e-10
1.261355659e-07
-4.692180983e-10
1.263466467e-07
-5.633734711e-10
1.265757908e-07
-6.513351894e-10
1.268226497e-07
-7.328962678e-10
1.270867106e-07
-8.078594378e-10
1.273673276e-07
-8.760374536e-10
1.276637345e-07
-9.372562728e-10
1.279750519e-07
-9.913622498e-10
1.283002941e-07
-1.03822775e-09
1.286383786e-07
-1.077754166e-09
-1.109874183e-09
1.289881381e-07
1.094429912e-07
3.490632116e-10
1.097739111e-07
1.054547877e-09
1.102729713e-07
1.699533081e-09
1.108867418e-07
2.248643807e-09
1.115778886e-07
2.697518801e-09
1.123229683e-07
3.053617145e-09
1.13100732e-07
3.322009209e-09
1.138921473e-07
3.506187172e-09
1.146832868e-07
3.613068e-09
1.154639668e-07
3.652524776e-09
1.162256727e-07
3.634737752e-09
1.169611553e-07
3.569228757e-09
1.17664761e-07
3.464987061e-09
1.183325865e-07
3.330395803e-09
1.189623757e-07
3.172930203e-09
1.195533762e-07
2.999001964e-09
1.201061572e-07
2.813973834e-09
1.206223785e-07
2.622229719e-09
1.211045277e-07
2.427252295e-09
1.215556616e-07
2.231713934e-09
1.219791776e-07
2.037585584e-09
1.223786227e-07
1.846253802e-09
1.227575444e-07
1.658634747e-09
1.231193812e-07
1.475279281e-09
1.234673887e-07
1.296466799e-09
1.238045953e-07
1.122286329e-09
1.241337782e-07
9.527052678e-10
1.244574563e-07
7.876286703e-10
1.247779051e-07
6.269446651e-10
1.250971935e-07
4.705563674e-10
1.254171761e-07
3.184095964e-10
1.257394645e-07
1.704817048e-10
1.260652876e-07
2.693529621e-11
1.263958794e-07
-1.123320303e-10
1.267325236e-07
-2.471595038e-10
1.270768302e-07
-3.776539463e-10
1.274298915e-07
-5.036065233e-10
1.277917906e-07
-6.247262712e-10
1.281634511e-07
-7.406990953e-10
1.285453452e-07
-8.511121824e-10
1.289376623e-07
-9.556906039e-10
1.293404759e-07
-1.054148781e-09
1.297537454e-07
-1.146165789e-09
1.301773095e-07
-1.231423528e-09
1.306108956e-07
-1.309623545e-09
1.310541281e-07
-1.380488726e-09
1.315065323e-07
-1.44376645e-09
1.319675389e-07
-1.499234413e-09
1.324364906e-07
-1.546705833e-09
-1.586032979e-09
1.329126494e-07
1.094077942e-07
2.712690173e-10
1.0964604e-07
8.163020458e-10
1.100195589e-07
1.326014238e-09
1.104927982e-07
1.775404519e-09
1.110358646e-07
2.154452332e-09
1.116267225e-07
2.462759235e-09
1.122468575e-07
2.701874249e-09
1.128795498e-07
2.873494843e-09
1.135113212e-07
2.981296679e-09
1.141324995e-07
3.031346441e-09
1.147364381e-07
3.030799144e-09
1.153187876e-07
2.986879261e-09
1.158771478e-07
2.906626907e-09
1.164107456e-07
2.796797998e-09
1.169200289e-07
2.663646921e-09
1.174063017e-07
2.512729157e-09
1.178714531e-07
2.348822403e-09
1.183177521e-07
2.17593073e-09
1.187476811e-07
1.997323353e-09
1.19163802e-07
1.815593023e-09
1.195686546e-07
1.632732925e-09
1.199646832e-07
1.450225194e-09
1.203541865e-07
1.269131503e-09
1.207392869e-07
1.09017885e-09
1.211219148e-07
9.138388985e-10
1.215038041e-07
7.403970698e-10
1.218864986e-07
5.700107577e-10
1.222713617e-07
4.027655357e-10
1.226595963e-07
2.387100694e-10
1.230523113e-07
7.784144259e-11
1.234504522e-07
-7.973138018e-11
1.2385486e-07
-2.339260566e-10
1.242665341e-07
-3.847387609e-10
1.24686236e-07
-5.320339112e-10
1.251146181e-07
-6.755416475e-10
1.25551987e-07
-8.150228547e-10
1.259985959e-07
-9.50215435e-10
1.264546942e-07
-1.080824505e-09
1.269204797e-07
-1.206484605e-09
1.273960937e-07
-1.326726199e-09
1.278815296e-07
-1.441126428e-09
1.283766756e-07
-1.549294789e-09
1.288813418e-07
-1.650832e-09
1.293952546e-07
-1.745336363e-09
1.299180529e-07
-1.832421789e-09
1.304492906e-07
-1.911726503e-09
1.30988442e-07
-1.982917756e-09
1.315349051e-07
-2.045697533e-09
1.320880077e-07
-2.099808468e-09
-2.145038465e-09
1.326470132e-07
1.0938881e-07
2.124589687e-10
1.095654323e-07
6.396797542e-10
1.098469659e-07
1.044480634e-09
1.102131298e-07
1.409240666e-09
1.106439666e-07
1.723615532e-09
1.111226736e-07
1.984052177e-09
1.116344908e-07
2.190057062e-09
1.121657142e-07
2.342271516e-09
1.127043212e-07
2.442689626e-09
1.132407267e-07
2.494941001e-09
1.137677727e-07
2.50375313e-09
1.142803878e-07
2.474264124e-09
1.147753329e-07
2.411681854e-09
1.152509897e-07
2.321141208e-09
1.157070884e-07
2.207548233e-09
1.161444015e-07
2.075416122e-09
1.165644624e-07
1.928761505e-09
1.169693257e-07
1.771067393e-09
1.173613644e-07
1.605284658e-09
1.177431027e-07
1.433854746e-09
1.18117086e-07
1.258749603e-09
1.184857863e-07
1.081524861e-09
1.18851537e-07
9.033808593e-10
1.192164926e-07
7.25223244e-10
1.195826065e-07
5.477249789e-10
1.199516254e-07
3.713782288e-10
1.203250971e-07
1.965390052e-10
1.207044099e-07
2.345275204e-11
1.210907473e-07
-1.476273578e-10
1.214851193e-07
-3.165305193e-10
1.218884193e-07
-4.830314426e-10
1.223014245e-07
-6.469312555e-10
1.227247077e-07
-8.080219562e-10
1.231587213e-07
-9.66047493e-10
1.236038853e-07
-1.120705657e-09
1.240605162e-07
-1.271653659e-09
1.245288216e-07
-1.418520841e-09
1.250088887e-07
-1.56089164e-09
1.255006999e-07
-1.698295787e-09
1.260041974e-07
-1.83022369e-09
1.265192405e-07
-1.956169459e-09
1.270455864e-07
-2.075640747e-09
1.275829003e-07
-2.188145901e-09
1.281307597e-07
-2.293195694e-09
1.286886547e-07
-2.390316824e-09
1.292559914e-07
-2.479063201e-09
1.298320968e-07
-2.559023172e-09
1.304162252e-07
-2.62982596e-09
1.310075649e-07
-2.691148127e-09
-2.742719159e-09
1.316052455e-07
1.093749355e-07
1.67523422e-10
1.095102136e-07
5.04401744e-10
1.097288644e-07
8.258297379e-10
1.100189485e-07
1.119156585e-09
1.10366814e-07
1.375750062e-09
1.107595319e-07
1.591334276e-09
1.11185332e-07
1.764256937e-09
1.116334078e-07
1.894195732e-09
1.120941277e-07
1.981969763e-09
1.125594411e-07
2.02962762e-09
1.130229945e-07
2.040199757e-09
1.134799944e-07
2.017264189e-09
1.139270477e-07
1.964628561e-09
1.143620321e-07
1.886156884e-09
1.147839437e-07
1.785636635e-09
1.151927091e-07
1.666650703e-09
1.155889902e-07
1.532480378e-09
1.159740045e-07
1.38605314e-09
1.163493649e-07
1.22992427e-09
1.167169406e-07
1.066279053e-09
1.170787395e-07
8.96950692e-10
1.17436815e-07
7.234493872e-10
1.177931955e-07
5.470003125e-10
1.18149833e-07
3.685857956e-10
1.185085455e-07
1.890124242e-10
1.188710501e-07
8.873640437e-12
1.192388987e-07
-1.713095673e-10
1.196134572e-07
-3.511057503e-10
1.199959637e-07
-5.301338831e-10
1.203874995e-07
-7.080663293e-10
1.207890407e-07
-8.845726212e-10
1.212014241e-07
-1.059314689e-09
1.216253434e-07
-1.231941244e-09
1.220613726e-07
-1.402076719e-09
1.225099736e-07
-1.569306578e-09
1.229714921e-07
-1.733172217e-09
1.234461504e-07
-1.893179094e-09
1.239340557e-07
-2.048796862e-09
1.244352205e-07
-2.199460599e-09
1.249495751e-07
-2.344578341e-09
1.254769502e-07
-2.483544509e-09
1.260170622e-07
-2.615752726e-09
1.26569517e-07
-2.74060075e-09
1.271338174e-07
-2.857496002e-09
1.277093664e-07
-2.965865889e-09
1.282954722e-07
-3.065168975e-09
1.288913534e-07
-3.154904362e-09
1.294961473e-07
-3.234619863e-09
1.301089187e-07
-3.303919608e-09
-3.36247066e-09
1.307286702e-07
1.093655632e-07
1.319602192e-10
1.094727508e-07
3.972141284e-10
1.096472822e-07
6.512983139e-10
1.09881497e-07
8.849418141e-10
1.101659676e-07
1.091279494e-09
1.104911141e-07
1.266187819e-09
1.108478978e-07
1.407473216e-09
1.112279268e-07
1.514166742e-09
1.116235798e-07
1.58631672e-09
1.120282465e-07
1.624960991e-09
1.124364809e-07
1.631965302e-09
1.128439985e-07
1.60974669e-09
1.132475992e-07
1.561027842e-09
1.136450827e-07
1.488673428e-09
1.140351483e-07
1.395570972e-09
1.144172729e-07
1.28452618e-09
1.147915755e-07
1.158177797e-09
1.151586872e-07
1.01894136e-09
1.15519631e-07
8.689804832e-10
1.158757132e-07
7.101968882e-10
1.162284289e-07
5.442349569e-10
1.165793814e-07
3.724969277e-10
1.169302129e-07
1.961687825e-10
1.172826251e-07
1.617366037e-11
1.176381344e-07
-1.664968921e-10
1.17998305e-07
-3.51296961e-10
1.183645569e-07
-5.375614916e-10
1.187382206e-07
-7.247694447e-10
1.191205278e-07
-9.124411435e-10
1.195125839e-07
-1.100122417e-09
1.199153799e-07
-1.287368567e-09
1.203297925e-07
-1.47372732e-09
1.207565807e-07
-1.658729472e-09
1.211963832e-07
-1.841879209e-09
1.216497207e-07
-2.022644038e-09
1.221169997e-07
-2.200451172e-09
1.225985105e-07
-2.374689968e-09
1.23094428e-07
-2.544714331e-09
1.236048124e-07
-2.709844965e-09
1.241296087e-07
-2.869374634e-09
1.246686424e-07
-3.022578155e-09
1.252216145e-07
-3.168724856e-09
1.257881025e-07
-3.307088696e-09
1.263675636e-07
-3.436957146e-09
1.269593395e-07
-3.55764181e-09
1.27562661e-07
-3.668490414e-09
1.28176655e-07
-3.768898359e-09
1.288003543e-07
-3.858319185e-09
1.294327086e-07
-3.936273946e-09
-4.00235926e-09
1.300725972e-07
1.093588402e-07
1.031200069e-10
1.094456799e-07
3.103743929e-10
1.095876902e-07
5.092880551e-10
1.097797601e-07
6.928719052e-10
1.100153691e-07
8.556705678e-10
1.102875415e-07
9.940154404e-10
1.105894048e-07
1.105609857e-09
1.109144102e-07
1.189161337e-09
1.112564859e-07
1.244241116e-09
1.116102234e-07
1.271223429e-09
1.119710249e-07
1.271163829e-09
1.123351523e-07
1.245619309e-09
1.12699707e-07
1.196473185e-09
1.130625809e-07
1.125799518e-09
1.134223928e-07
1.035759068e-09
1.137784079e-07
9.285110566e-10
1.141304445e-07
8.061412496e-10
1.144787785e-07
6.706074027e-10
1.148240533e-07
5.237056047e-10
1.151671949e-07
3.670553456e-10
1.155093274e-07
2.021024531e-10
1.158517436e-07
3.008074926e-11
1.161957804e-07
-1.478680365e-10
1.165427871e-07
-3.308330989e-10
1.168942369e-07
-5.179466621e-10
1.172514496e-07
-7.085096952e-10
1.176157555e-07
-9.018673751e-10
1.179884096e-07
-1.097423529e-09
1.183705901e-07
-1.294621637e-09
1.187633909e-07
-1.492923196e-09
1.19167814e-07
-1.691791694e-09
1.195847645e-07
-1.890677871e-09
1.200150439e-07
-2.089008778e-09
1.204593439e-07
-2.286179217e-09
1.209182448e-07
-2.481544925e-09
1.213922125e-07
-2.674418863e-09
1.218815935e-07
-2.864070987e-09
1.223866096e-07
-3.049730381e-09
1.229073537e-07
-3.230589071e-09
1.234437875e-07
-3.405808488e-09
1.239957385e-07
-3.574529103e-09
1.245628958e-07
-3.735882129e-09
1.251448086e-07
-3.889001491e-09
1.257408874e-07
-4.03303592e-09
1.263504076e-07
-4.167162096e-09
1.26972516e-07
-4.290598792e-09
1.276062386e-07
-4.402620935e-09
1.282504921e-07
-4.50257275e-09
1.289040977e-07
-4.589879545e-09
-4.664057765e-09
1.295657962e-07
1.093537909e-07
7.932913369e-11
1.094253925e-07
2.3877274e-10
1.095428668e-07
3.918138044e-10
1.097026958e-07
5.330428805e-10
1.099002748e-07
6.58091635e-10
1.10130485e-07
7.638052496e-10
1.103880996e-07
8.479952334e-10
1.106680168e-07
9.092442198e-10
1.10965423e-07
9.46834895e-10
1.112759465e-07
9.606998739e-10
1.115957774e-07
9.513330147e-10
1.119217301e-07
9.1966656e-10
1.122512558e-07
8.669475461e-10
1.125824231e-07
7.946321484e-10
1.12913883e-07
7.042992292e-10
1.132448186e-07
5.975754458e-10
1.135748829e-07
4.760769946e-10
1.139041321e-07
3.41358228e-10
1.14232951e-07
1.948866967e-10
1.145620279e-07
3.797843709e-11
1.148922031e-07
-1.280728218e-10
1.152245032e-07
-3.022193406e-10
1.155600814e-07
-4.834462357e-10
1.159001249e-07
-6.708765279e-10
1.162458923e-07
-8.637140536e-10
1.165986203e-07
-1.061237774e-09
1.16959539e-07
-1.262785995e-09
1.173298478e-07
-1.467732379e-09
1.177106983e-07
-1.675472167e-09
1.181031815e-07
-1.885406381e-09
1.185083166e-07
-2.096926771e-09
1.189270415e-07
-2.309402821e-09
1.19360204e-07
-2.522171246e-09
1.198085526e-07
-2.734527841e-09
1.202727291e-07
-2.945721369e-09
1.207532601e-07
-3.154949889e-09
1.212505492e-07
-3.36136005e-09
1.217648681e-07
-3.564049299e-09
1.222963497e-07
-3.762070608e-09
1.22844981e-07
-3.954439791e-09
1.234105974e-07
-4.140145548e-09
1.239928772e-07
-4.318161902e-09
1.245913381e-07
-4.487462339e-09
1.252053373e-07
-4.647035181e-09
1.258340753e-07
-4.795900049e-09
1.264766016e-07
-4.933125158e-09
1.271318253e-07
-5.057844653e-09
1.277985277e-07
-5.169275143e-09
1.284753789e-07
-5.266730692e-09
-5.349635618e-09
1.291609567e-07
1.093499066e-07
5.942250444e-11
1.094098018e-07
1.788775819e-10
1.095083142e-07
2.933014177e-10
1.096429465e-07
3.984106154e-10
1.098103759e-07
4.906622112e-10
1.100068159e-07
5.673653301e-10
1.102282981e-07
6.265130502e-10
1.10470867e-07
6.666753059e-10
1.107307268e-07
6.869751027e-10
1.110043664e-07
6.870602744e-10
1.112886608e-07
6.670385823e-10
1.115809356e-07
6.27391844e-10
1.118789949e-07
5.688882109e-10
1.121811244e-07
4.92502666e-10
1.124860761e-07
3.993475599e-10
1.127930398e-07
2.906116944e-10
1.131015823e-07
1.675344769e-10
1.134116712e-07
3.126933774e-11
1.137235118e-07
-1.169538744e-10
1.140375847e-07
-2.76094519e-10
1.143546145e-07
-4.451025474e-10
1.146754408e-07
-6.230456486e-10
1.150010517e-07
-8.090571375e-10
1.153325154e-07
-1.002340207e-09
1.156709615e-07
-1.202160229e-09
1.160175539e-07
-1.407830179e-09
1.16373467e-07
-1.618699023e-09
1.167398686e-07
-1.834134021e-09
1.171179028e-07
-2.053506335e-09
1.17508674e-07
-2.276177637e-09
1.179132341e-07
-2.501486846e-09
1.183325693e-07
-2.728738048e-09
1.187675883e-07
-2.957190235e-09
1.192191096e-07
-3.186049099e-09
1.196878492e-07
-3.414460975e-09
1.201744086e-07
-3.641509226e-09
1.20679262e-07
-3.866213472e-09
1.212027445e-07
-4.08753182e-09
1.2174504e-07
-4.304366072e-09
1.223061701e-07
-4.515569946e-09
1.22885985e-07
-4.719960389e-09
1.234841549e-07
-4.916331847e-09
1.241001657e-07
-5.103473101e-09
1.247333166e-07
-5.280186148e-09
1.253827233e-07
-5.445306682e-09
1.260473237e-07
-5.597725631e-09
1.2672589e-07
-5.736410936e-09
1.274170434e-07
-5.860428581e-09
1.281192746e-07
-5.96896185e-09
-6.06132785e-09
1.288309668e-07
1.093468455e-07
4.257697613e-11
1.093975218e-07
1.282013006e-10
1.094810343e-07
2.097889646e-10
1.095955698e-07
2.838751803e-10
1.097386917e-07
3.47540261e-10
1.099075761e-07
3.984809708e-10
1.100992036e-07
4.348855366e-10
1.103105089e-07
4.553700375e-10
1.105385033e-07
4.589807655e-10
1.107803776e-07
4.451859839e-10
1.110335889e-07
4.138272401e-10
1.112959209e-07
3.650597954e-10
1.115655176e-07
2.992915418e-10
1.118408948e-07
2.171254784e-10
1.121209377e-07
1.1930464e-10
1.124049511e-07
6.598289007e-12
1.126924302e-07
-1.199445524e-10
1.129832843e-07
-2.595848416e-10
1.132776893e-07
-4.113587998e-10
1.135760133e-07
-5.744186079e-10
1.1387885e-07
-7.479391892e-10
1.141869436e-07
-9.311392575e-10
1.145011724e-07
-1.123285909e-09
1.148225196e-07
-1.3236874e-09
1.151520462e-07
-1.53168688e-09
1.154908682e-07
-1.746652192e-09
1.158401337e-07
-1.967964525e-09
1.16201005e-07
-2.195005274e-09
1.165746414e-07
-2.427142769e-09
1.169621832e-07
-2.663719454e-09
1.173647358e-07
-2.904039368e-09
1.177833541e-07
-3.14735638e-09
1.182190277e-07
-3.392863797e-09
1.186726644e-07
-3.639685793e-09
1.191450744e-07
-3.886870955e-09
1.196369535e-07
-4.133388319e-09
1.201488663e-07
-4.378126286e-09
1.206812292e-07
-4.619894753e-09
1.212342939e-07
-4.857430709e-09
1.218081314e-07
-5.089407444e-09
1.224026185e-07
-5.314447515e-09
1.23017426e-07
-5.531139403e-09
1.236520105e-07
-5.738057625e-09
1.243056102e-07
-5.93378583e-09
1.249772458e-07
-6.116942304e-09
1.256657273e-07
-6.28620709e-09
1.26369666e-07
-6.440349689e-09
1.270874935e-07
-6.57825609e-09
1.278174854e-07
-6.698953754e-09
-6.801633189e-09
1.285577908e-07
1.093443763e-07
2.820069969e-11
1.093876306e-07
8.49470311e-11
1.094590262e-07
1.383933969e-10
1.095572227e-07
1.856786768e-10
1.096804088e-07
2.243542106e-10
1.098264595e-07
2.524302357e-10
1.099930685e-07
2.682766043e-10
1.101778587e-07
2.705798227e-10
1.10378479e-07
2.583604422e-10
1.105926906e-07
2.309743794e-10
1.10818441e-07
1.880768802e-10
1.110539161e-07
1.295846854e-10
1.112975758e-07
5.563182277e-11
1.115481753e-07
-3.347402905e-11
1.118047598e-07
-1.372798386e-10
1.120666172e-07
-2.55259095e-10
1.123334532e-07
-3.86780548e-10
1.126051011e-07
-5.31232835e-10
1.128816986e-07
-6.879562262e-10
1.131635774e-07
-8.562974154e-10
1.134512592e-07
-1.035621012e-09
1.137454299e-07
-1.225309928e-09
1.140469123e-07
-1.424768306e-09
1.143566433e-07
-1.633418408e-09
1.146756512e-07
-1.850694841e-09
1.150050354e-07
-2.07603639e-09
1.153459468e-07
-2.308875867e-09
1.1569957e-07
-2.54862848e-09
1.160671065e-07
-2.794679269e-09
1.164497574e-07
-3.046370333e-09
1.168487062e-07
-3.302988196e-09
1.172651015e-07
-3.563751695e-09
1.177000387e-07
-3.827800917e-09
1.181545406e-07
-4.094187685e-09
1.186295377e-07
-4.361868103e-09
1.19125847e-07
-4.629697629e-09
1.1964415e-07
-4.896429202e-09
1.201849702e-07
-5.160714939e-09
1.207486513e-07
-5.421111839e-09
1.213353357e-07
-5.676091869e-09
1.219449449e-07
-5.924056684e-09
1.225771625e-07
-6.163357093e-09
1.23231422e-07
-6.392317135e-09
1.239068985e-07
-6.609262369e-09
1.246025079e-07
-6.812551691e-09
1.253169125e-07
-7.000611682e-09
1.260485349e-07
-7.171972131e-09
1.2679558e-07
-7.325301112e-09
1.27556064e-07
-7.459437734e-09
-7.573420648e-09
1.283278514e-07
1.093423361e-07
1.586465472e-11
1.093794891e-07
4.779406267e-11
1.094408976e-07
7.698483737e-11
1.095255553e-07
1.010210037e-10
1.096320989e-07
1.1781068e-10
1.097589128e-07
1.256163403e-10
1.099042264e-07
1.229629471e-10
1.100662143e-07
1.085919844e-10
1.10243016e-07
8.155870799e-11
1.104328542e-07
4.113621588e-11
1.10634085e-07
-1.315396352e-11
1.108452383e-07
-8.156863099e-11
1.1106505e-07
-1.64179814e-10
1.11292483e-07
-2.609070485e-10
1.115267481e-07
-3.715449101e-10
1.117672871e-07
-4.957981361e-10
1.120138047e-07
-6.332981787e-10
1.122662051e-07
-7.836331929e-10
1.125246147e-07
-9.463658788e-10
1.12789359e-07
-1.121041661e-09
1.130609403e-07
-1.307202351e-09
1.133400209e-07
-1.504390466e-09
1.136274027e-07
-1.712150113e-09
1.139240092e-07
-1.930024911e-09
1.142308672e-07
-2.157552917e-09
1.145490899e-07
-2.39425902e-09
1.148798592e-07
-2.639645208e-09
1.152244099e-07
-2.893179164e-09
1.155840123e-07
-3.154281684e-09
1.159599554e-07
-3.422313412e-09
1.163535286e-07
-3.696561375e-09
1.167660027e-07
-3.976225724e-09
1.17198609e-07
-4.260407213e-09
1.176525173e-07
-4.548095995e-09
1.181288115e-07
-4.838162351e-09
1.186284639e-07
-5.12935001e-09
1.191523075e-07
-5.420272743e-09
1.197010075e-07
-5.709414958e-09
1.202750326e-07
-5.995136974e-09
1.208746263e-07
-6.275685603e-09
1.214997802e-07
-6.549210549e-09
1.2215021e-07
-6.813786945e-09
1.228253369e-07
-7.067444074e-09
1.235242745e-07
-7.308199966e-09
1.24245824e-07
-7.534101128e-09
1.249884785e-07
-7.743266214e-09
1.257504382e-07
-7.933931902e-09
1.265296359e-07
-8.104498814e-09
1.273237731e-07
-8.253574908e-09
-8.38001362e-09
1.281303661e-07
1.093406249e-07
5.239817984e-12
1.093726615e-07
1.575741425e-11
1.094256731e-07
2.39732596e-11
1.094988998e-07
2.779436033e-11
1.095913092e-07
2.540129623e-11
1.097016628e-07
1.526269465e-11
1.098285476e-07
-3.92177166e-12
1.099706337e-07
-3.349417324e-11
1.101264095e-07
-7.42171072e-11
1.102944839e-07
-1.269381073e-10
1.104735456e-07
-1.922157168e-10
1.10662413e-07
-2.704360073e-10
1.10860067e-07
-3.618338226e-10
1.110656718e-07
-4.665118329e-10
1.112785891e-07
-5.844622857e-10
1.114983811e-07
-7.155900925e-10
1.117248151e-07
-8.597322413e-10
1.119578578e-07
-1.016675826e-09
1.121976665e-07
-1.186174606e-09
1.124445818e-07
-1.367957013e-09
1.126991138e-07
-1.561734316e-09
1.129619286e-07
-1.767205274e-09
1.132338353e-07
-1.984056743e-09
1.135157716e-07
-2.211961215e-09
1.138087902e-07
-2.450571589e-09
1.141140446e-07
-2.699513407e-09
1.144327743e-07
-2.958374865e-09
1.147662901e-07
-3.226694958e-09
1.151159585e-07
-3.50395013e-09
1.15483185e-07
-3.789539844e-09
1.158693951e-07
-4.082771504e-09
1.162760146e-07
-4.382845202e-09
1.167044463e-07
-4.688838841e-09
1.171560446e-07
-4.99969428e-09
1.176320875e-07
-5.314205241e-09
1.181337453e-07
-5.631007803e-09
1.186620469e-07
-5.948574385e-09
1.192178441e-07
-6.265212196e-09
1.198017743e-07
-6.579067149e-09
1.204142229e-07
-6.888134222e-09
1.210552875e-07
-7.190275119e-09
1.217247444e-07
-7.483243904e-09
1.224220213e-07
-7.764720938e-09
1.231461763e-07
-8.032355002e-09
1.238958881e-07
-8.283812901e-09
1.24669457e-07
-8.516835144e-09
1.254648206e-07
-8.729295552e-09
1.262795837e-07
-8.919261878e-09
1.271110627e-07
-9.085053919e-09
-9.225295198e-09
1.279563443e-07
1.0933922e-07
-3.980127088e-12
1.093668902e-07
-1.191283546e-11
1.094127027e-07
-2.183922328e-11
1.094760796e-07
-3.558254077e-11
1.095562291e-07
-5.474818796e-11
1.096522104e-07
-8.071854474e-11
1.097630186e-07
-1.147299687e-10
1.098874327e-07
-1.57908268e-10
1.100243853e-07
-2.111697045e-10
1.101727596e-07
-2.753123931e-10
1.103315172e-07
-3.509733672e-10
1.104997226e-07
-4.386414041e-10
1.106765667e-07
-5.386778651e-10
1.108613881e-07
-6.513332818e-10
1.110536889e-07
-7.767631028e-10
1.112531431e-07
-9.150442618e-10
1.114596017e-07
-1.066190915e-09
1.116730941e-07
-1.230168164e-09
1.118938231e-07
-1.406903691e-09
1.121221619e-07
-1.59629578e-09
1.123586465e-07
-1.798218948e-09
1.126039683e-07
-2.01252703e-09
1.128589646e-07
-2.239053054e-09
1.131246095e-07
-2.477606122e-09
1.134020035e-07
-2.727965578e-09
1.136923627e-07
-2.989872631e-09
1.139970075e-07
-3.263019599e-09
1.143173495e-07
-3.547037008e-09
1.146548782e-07
-3.841478828e-09
1.150111446e-07
-4.145806165e-09
1.153877429e-07
-4.459369799e-09
1.157862898e-07
-4.781392051e-09
1.162083995e-07
-5.110948527e-09
1.166556557e-07
-5.446950474e-09
1.17129579e-07
-5.788128579e-09
1.176315904e-07
-6.133019228e-09
1.181629704e-07
-6.479954381e-09
1.187248146e-07
-6.827056362e-09
1.193179864e-07
-7.172238965e-09
1.199430685e-07
-7.513216324e-09
1.206003143e-07
-7.847520923e-09
1.212896023e-07
-8.172531939e-09
1.220103961e-07
-8.48551473e-09
1.227617128e-07
-8.783671733e-09
1.235421042e-07
-9.06420423e-09
1.243496525e-07
-9.324383477e-09
1.251819855e-07
-9.56162853e-09
1.260363105e-07
-9.773586938e-09
1.2690947e-07
-9.958213416e-09
-1.011384081e-08
1.277980156e-07
1.093380073e-07
-1.198738716e-11
1.093618897e-07
-3.579528797e-11
1.0940143e-07
-6.137943569e-11
1.094561903e-07
-9.034285617e-11
1.095255657e-07
-1.241235764e-10
1.096088311e-07
-1.639839966e-10
1.097051722e-07
-2.110709859e-10
1.098136998e-07
-2.664359273e-10
1.099335432e-07
-3.310130343e-10
1.100638372e-07
-4.056064275e-10
1.102037643e-07
-4.909004591e-10
1.103525876e-07
-5.87464754e-10
1.105096743e-07
-6.957645598e-10
1.10674514e-07
-8.161730104e-10
1.108467344e-07
-9.489834861e-10
1.110261122e-07
-1.094422001e-09
1.112125803e-07
-1.25265903e-09
1.114062321e-07
-1.423819974e-09
1.116073223e-07
-1.607993901e-09
1.118162665e-07
-1.805240021e-09
1.120336393e-07
-2.015591698e-09
1.122601703e-07
-2.239058027e-09
1.124967399e-07
-2.475622719e-09
1.12744374e-07
-2.725240204e-09
1.130042374e-07
-2.987828994e-09
1.132776272e-07
-3.263262379e-09
1.135659641e-07
-3.551356525e-09
1.138707832e-07
-3.851856073e-09
1.141937218e-07
-4.164417425e-09
1.145365056e-07
-4.488589927e-09
1.149009311e-07
-4.823795279e-09
1.152888446e-07
-5.169305579e-09
1.157021167e-07
-5.524220583e-09
1.161426111e-07
-5.88744491e-09
1.166121487e-07
-6.257666168e-09
1.171124646e-07
-6.633335167e-09
1.176451599e-07
-7.012649678e-09
1.18211647e-07
-7.39354342e-09
1.188130902e-07
-7.773682183e-09
1.194503431e-07
-8.150469174e-09
1.201238838e-07
-8.521061674e-09
1.208337529e-07
-8.882401004e-09
1.215794956e-07
-9.231257406e-09
1.223601146e-07
-9.564290777e-09
1.231740376e-07
-9.87812718e-09
1.240191038e-07
-1.016944969e-08
1.248925757e-07
-1.043510044e-08
1.257911776e-07
-1.067218887e-08
1.267111636e-07
-1.08781994e-08
-1.105109028e-08
1.276484131e-07
1.093368594e-07