/*--------------------------------*- C++ -*----------------------------------*\
| =========                 |                                                 |
| \\      /  F ield         | foam-extend: Open Source CFD                    |
|  \\    /   O peration     | Version:     4.1                                |
|   \\  /    A nd           | Web:         http://www.foam-extend.org         |
|    \\/     M anipulation  |                                                 |
\*---------------------------------------------------------------------------*/
FoamFile
{
    version     2.0;
    format      ascii;
    class       volVectorField;
    location    "50000";
    object      U;
}
// * * * * * * * * * * * * * * * * * * * * * * * * * * * * * * * * * * * * * //

dimensions      [0 1 -1 0 0 0 0];

internalField   nonuniform List<vector> 
15920
(
(0.0002132446951 5.113961176e-06 0)
(0.000205871022 1.128976295e-05 0)
(0.0001957846183 1.369677146e-05 0)
(0.000182296797 1.416967693e-05 0)
(0.0001679427341 1.371431555e-05 0)
(0.0001543738359 1.263845232e-05 0)
(0.0001418532029 1.112673286e-05 0)
(0.0001302992675 9.403132704e-06 0)
(0.0001197856323 7.665571415e-06 0)
(0.000110432384 6.040325466e-06 0)
(0.0001022648055 4.59516369e-06 0)
(9.522162055e-05 3.361499364e-06 0)
(8.921019046e-05 2.345369333e-06 0)
(8.413185009e-05 1.534322581e-06 0)
(7.988439026e-05 9.050777448e-07 0)
(7.636388167e-05 4.301010909e-07 0)
(7.346985681e-05 8.17331132e-08 0)
(7.110959286e-05 -1.655874712e-07 0)
(6.919990637e-05 -3.342170051e-07 0)
(6.766751257e-05 -4.429289914e-07 0)
(6.644888945e-05 -5.070259229e-07 0)
(6.548985626e-05 -5.38711183e-07 0)
(6.474487554e-05 -5.475487955e-07 0)
(6.417615785e-05 -5.409178994e-07 0)
(6.375269816e-05 -5.244110904e-07 0)
(6.344888877e-05 -5.020975871e-07 0)
(6.324450686e-05 -4.763059531e-07 0)
(6.312383286e-05 -4.485408276e-07 0)
(6.307657849e-05 -4.205597745e-07 0)
(6.309203903e-05 -3.961619496e-07 0)
(6.316064922e-05 -3.755071595e-07 0)
(6.327566883e-05 -3.570436554e-07 0)
(6.343216871e-05 -3.40154724e-07 0)
(6.362592371e-05 -3.249545544e-07 0)
(6.385325343e-05 -3.11550064e-07 0)
(6.411094572e-05 -2.997213483e-07 0)
(6.439619087e-05 -2.894591351e-07 0)
(6.470688807e-05 -2.808204914e-07 0)
(6.504099284e-05 -2.728204132e-07 0)
(6.539605208e-05 -2.648905728e-07 0)
(6.57694415e-05 -2.57049812e-07 0)
(6.615857588e-05 -2.493086876e-07 0)
(6.656086749e-05 -2.414918858e-07 0)
(6.697364281e-05 -2.333722088e-07 0)
(6.73941364e-05 -2.247612212e-07 0)
(6.781951944e-05 -2.15510898e-07 0)
(6.824691808e-05 -2.055000716e-07 0)
(6.867342412e-05 -1.946330238e-07 0)
(6.909611013e-05 -1.828414695e-07 0)
(6.951204932e-05 -1.700837572e-07 0)
(0.0002201174049 5.634067555e-06 0)
(0.0002251683995 1.291060869e-05 0)
(0.0002303497263 1.655419141e-05 0)
(0.0002340520081 1.847065069e-05 0)
(0.0002359983234 1.956389049e-05 0)
(0.000236415948 1.995768068e-05 0)
(0.0002354858065 1.969760417e-05 0)
(0.0002333698119 1.89269472e-05 0)
(0.0002302979693 1.780382338e-05 0)
(0.0002265325242 1.645063947e-05 0)
(0.0002223101976 1.496216004e-05 0)
(0.0002178241223 1.341805836e-05 0)
(0.0002132303116 1.188389012e-05 0)
(0.0002086542845 1.04091995e-05 0)
(0.00020419287 9.02810834e-06 0)
(0.0001999159974 7.761680693e-06 0)
(0.0001958706672 6.620463437e-06 0)
(0.0001920857542 5.606817347e-06 0)
(0.0001885762698 4.717090029e-06 0)
(0.0001853468419 3.943563514e-06 0)
(0.000182394589 3.276065158e-06 0)
(0.0001797114721 2.703213613e-06 0)
(0.0001772861356 2.213338747e-06 0)
(0.0001751052797 1.7951291e-06 0)
(0.000173154709 1.438068263e-06 0)
(0.0001714201416 1.132658639e-06 0)
(0.0001698877532 8.706068669e-07 0)
(0.0001685436356 6.446970966e-07 0)
(0.0001673741752 4.487490153e-07 0)
(0.0001663652849 2.770064259e-07 0)
(0.000165507296 1.253800928e-07 0)
(0.0001647906386 -9.02275706e-09 0)
(0.0001642053627 -1.286985957e-07 0)
(0.0001637422956 -2.358372408e-07 0)
(0.0001633933049 -3.321926086e-07 0)
(0.0001631506077 -4.191440654e-07 0)
(0.0001630065988 -4.97627601e-07 0)
(0.0001629551864 -5.697726581e-07 0)
(0.0001629899182 -6.352115963e-07 0)
(0.0001631035097 -6.934873382e-07 0)
(0.0001632890537 -7.446251446e-07 0)
(0.0001635403263 -7.88767469e-07 0)
(0.0001638513822 -8.259994661e-07 0)
(0.0001642163239 -8.563668631e-07 0)
(0.0001646293211 -8.799054573e-07 0)
(0.0001650846557 -8.966488122e-07 0)
(0.0001655767165 -9.066335625e-07 0)
(0.0001660999825 -9.099077464e-07 0)
(0.000166649018 -9.065372749e-07 0)
(0.0001672184752 -8.966093156e-07 0)
(0.0002187791885 1.461390883e-06 0)
(0.0002200407926 4.370595147e-06 0)
(0.0002226262431 6.983729828e-06 0)
(0.0002259714095 9.314764323e-06 0)
(0.0002295434376 1.138554678e-05 0)
(0.0002331108131 1.308069685e-05 0)
(0.0002365067259 1.430445389e-05 0)
(0.0002395402965 1.505303406e-05 0)
(0.0002420646836 1.537245218e-05 0)
(0.0002440131566 1.532085557e-05 0)
(0.0002453795734 1.49617608e-05 0)
(0.0002461932776 1.436365872e-05 0)
(0.0002465065183 1.359462596e-05 0)
(0.0002463862658 1.271592917e-05 0)
(0.0002459057106 1.177856163e-05 0)
(0.0002451372026 1.082264906e-05 0)
(0.0002441480087 9.878206641e-06 0)
(0.0002429983156 8.966359399e-06 0)
(0.0002417404332 8.100789243e-06 0)
(0.0002404186702 7.289271541e-06 0)
(0.0002390696992 6.535132576e-06 0)
(0.0002377232588 5.838512839e-06 0)
(0.0002364030181 5.197401853e-06 0)
(0.0002351274767 4.60845256e-06 0)
(0.0002339108148 4.067596649e-06 0)
(0.0002327636207 3.570462364e-06 0)
(0.0002316934817 3.112538769e-06 0)
(0.0002307055146 2.689516176e-06 0)
(0.0002298030127 2.29766509e-06 0)
(0.0002289881642 1.934429151e-06 0)
(0.000228262319 1.597055073e-06 0)
(0.0002276255378 1.282801637e-06 0)
(0.0002270769101 9.894465403e-07 0)
(0.0002266151055 7.152577659e-07 0)
(0.0002262383518 4.588593332e-07 0)
(0.0002259444459 2.18890819e-07 0)
(0.0002257294251 -5.44656726e-09 0)
(0.0002255897828 -2.128981546e-07 0)
(0.0002255244121 -4.045869642e-07 0)
(0.0002255299768 -5.816020016e-07 0)
(0.0002256028764 -7.442071094e-07 0)
(0.0002257398423 -8.923571849e-07 0)
(0.0002259375972 -1.026048917e-06 0)
(0.0002261926638 -1.145329131e-06 0)
(0.0002265013779 -1.250241836e-06 0)
(0.0002268599265 -1.340826385e-06 0)
(0.0002272643659 -1.41713842e-06 0)
(0.0002277106357 -1.479263197e-06 0)
(0.0002281945799 -1.527321147e-06 0)
(0.0002287119674 -1.561471813e-06 0)
(0.0002187707654 1.477775695e-06 0)
(0.000219499446 4.298147032e-06 0)
(0.0002207797488 6.682691395e-06 0)
(0.0002224274081 8.518344979e-06 0)
(0.0002242830204 9.899188076e-06 0)
(0.0002263125586 1.092820965e-05 0)
(0.0002285101906 1.165285495e-05 0)
(0.0002308191613 1.210548434e-05 0)
(0.000233152186 1.232325e-05 0)
(0.0002354308994 1.234143666e-05 0)
(0.0002375953177 1.218982459e-05 0)
(0.0002395991852 1.189596428e-05 0)
(0.0002414090241 1.148720952e-05 0)
(0.00024300574 1.098986181e-05 0)
(0.0002443840301 1.042797263e-05 0)
(0.000245549592 9.822807631e-06 0)
(0.0002465159284 9.19266348e-06 0)
(0.0002473016272 8.552737866e-06 0)
(0.0002479281499 7.915102933e-06 0)
(0.0002484180434 7.288868004e-06 0)
(0.0002487935929 6.680502787e-06 0)
(0.0002490759166 6.094241963e-06 0)
(0.0002492844336 5.532509819e-06 0)
(0.0002494366025 4.996328619e-06 0)
(0.0002495478444 4.4856845e-06 0)
(0.0002496315881 3.999847739e-06 0)
(0.0002496994003 3.537663272e-06 0)
(0.0002497611666 3.097829591e-06 0)
(0.0002498252918 2.679097952e-06 0)
(0.0002498989243 2.280338126e-06 0)
(0.0002499881299 1.900303788e-06 0)
(0.0002500979497 1.537812354e-06 0)
(0.0002502325203 1.191932473e-06 0)
(0.0002503951864 8.619584915e-07 0)
(0.000250588659 5.475574566e-07 0)
(0.0002508147183 2.489055688e-07 0)
(0.0002510745226 -3.384483468e-08 0)
(0.0002513708338 -2.9966964e-07 0)
(0.0002517021106 -5.495385473e-07 0)
(0.0002520691985 -7.842317405e-07 0)
(0.0002524729606 -1.0037179e-06 0)
(0.0002529132998 -1.207648718e-06 0)
(0.000253389534 -1.39568745e-06 0)
(0.000253900726 -1.567531818e-06 0)
(0.0002544457247 -1.722881566e-06 0)
(0.000255023131 -1.861448157e-06 0)
(0.0002556312969 -1.982980934e-06 0)
(0.0002562683499 -2.087283961e-06 0)
(0.0002569322163 -2.174224442e-06 0)
(0.0002576206414 -2.243738668e-06 0)
(0.0002187115033 1.02322329e-06 0)
(0.0002191183686 2.97433225e-06 0)
(0.0002199360455 4.705897103e-06 0)
(0.0002210826447 6.159194838e-06 0)
(0.000222423335 7.346263141e-06 0)
(0.0002238754552 8.29149334e-06 0)
(0.0002254041061 9.00229795e-06 0)
(0.0002269809707 9.485389782e-06 0)
(0.0002285730563 9.760697184e-06 0)
(0.0002301523817 9.856451822e-06 0)
(0.0002316997646 9.801026308e-06 0)
(0.0002332008381 9.620606074e-06 0)
(0.0002346432268 9.339618895e-06 0)
(0.0002360170491 8.98056888e-06 0)
(0.0002373159323 8.563413374e-06 0)
(0.0002385370042 8.105255914e-06 0)
(0.0002396803149 7.620384672e-06 0)
(0.0002407482735 7.120432619e-06 0)
(0.0002417451713 6.614570518e-06 0)
(0.0002426766936 6.109753096e-06 0)
(0.0002435494267 5.611021517e-06 0)
(0.0002443704217 5.121830216e-06 0)
(0.0002451468507 4.644366033e-06 0)
(0.0002458857533 4.179842497e-06 0)
(0.0002465938581 3.728762013e-06 0)
(0.0002472774685 3.291144048e-06 0)
(0.0002479423985 2.866716004e-06 0)
(0.0002485939455 2.45506422e-06 0)
(0.0002492368969 2.055744435e-06 0)
(0.0002498755744 1.668352926e-06 0)
(0.0002505139003 1.29258393e-06 0)
(0.0002511553063 9.282489709e-07 0)
(0.0002518029827 5.753740559e-07 0)
(0.0002524588087 2.341713753e-07 0)
(0.0002531251867 -9.506073113e-08 0)
(0.0002538049657 -4.118491158e-07 0)
(0.0002545019919 -7.157936391e-07 0)
(0.0002552170035 -1.0079618e-06 0)
(0.0002559504563 -1.287426707e-06 0)
(0.0002567036378 -1.553028562e-06 0)
(0.0002574776114 -1.803972189e-06 0)
(0.0002582727157 -2.039600965e-06 0)
(0.0002590888585 -2.259244382e-06 0)
(0.0002599257773 -2.462224559e-06 0)
(0.0002607830518 -2.647893454e-06 0)
(0.0002616600503 -2.815654621e-06 0)
(0.0002625559215 -2.96497577e-06 0)
(0.0002634696148 -3.095399789e-06 0)
(0.0002643998988 -3.206553921e-06 0)
(0.000265345375 -3.298156245e-06 0)
(0.0002186959262 7.792961064e-07 0)
(0.0002189839261 2.305182815e-06 0)
(0.0002195806515 3.722486345e-06 0)
(0.0002204467916 4.966516303e-06 0)
(0.0002214898282 6.010235013e-06 0)
(0.0002226396244 6.851428628e-06 0)
(0.0002238580976 7.493861962e-06 0)
(0.0002251174316 7.944430563e-06 0)
(0.0002263891773 8.21700495e-06 0)
(0.0002276482275 8.331402513e-06 0)
(0.0002288772557 8.309349791e-06 0)
(0.0002300658557 8.172195347e-06 0)
(0.0002312079766 7.940462444e-06 0)
(0.0002323006397 7.633521638e-06 0)
(0.0002333435487 7.268948489e-06 0)
(0.0002343385873 6.862030586e-06 0)
(0.0002352891312 6.425633412e-06 0)
(0.0002361994755 5.970297331e-06 0)
(0.0002370744579 5.504422912e-06 0)
(0.0002379191905 5.034499756e-06 0)
(0.000238738835 4.565369492e-06 0)
(0.0002395384228 4.100503258e-06 0)
(0.0002403227294 3.642270319e-06 0)
(0.0002410961956 3.192183244e-06 0)
(0.0002418628851 2.751114866e-06 0)
(0.0002426264661 2.319484891e-06 0)
(0.0002433902151 1.897415888e-06 0)
(0.0002441570353 1.484867386e-06 0)
(0.0002449294842 1.081747633e-06 0)
(0.0002457098518 6.879679689e-07 0)
(0.0002465001906 3.034810644e-07 0)
(0.000247302326 -7.167004592e-08 0)
(0.0002481177093 -4.372708501e-07 0)
(0.0002489486651 -7.9287401e-07 0)
(0.0002497965287 -1.138216054e-06 0)
(0.0002506620911 -1.473190566e-06 0)
(0.0002515459341 -1.797557539e-06 0)
(0.0002524485291 -2.110706505e-06 0)
(0.0002533703004 -2.411363585e-06 0)
(0.0002543116048 -2.698329458e-06 0)
(0.0002552726175 -2.970721614e-06 0)
(0.0002562532385 -3.227737947e-06 0)
(0.0002572531427 -3.468514441e-06 0)
(0.0002582718484 -3.692160049e-06 0)
(0.0002593087241 -3.897817971e-06 0)
(0.0002603629687 -4.084690715e-06 0)
(0.0002614336098 -4.252048661e-06 0)
(0.0002625195156 -4.399241195e-06 0)
(0.0002636194086 -4.5257101e-06 0)
(0.000264731877 -4.63100059e-06 0)
(0.000218687285 6.083731967e-07 0)
(0.0002189025933 1.80523906e-06 0)
(0.0002193488551 2.931200939e-06 0)
(0.0002200074986 3.936149425e-06 0)
(0.0002208214476 4.793540185e-06 0)
(0.0002217424549 5.497050042e-06 0)
(0.0002227396405 6.048147185e-06 0)
(0.0002237885522 6.45065113e-06 0)
(0.000224864665 6.711791197e-06 0)
(0.0002259452949 6.842907901e-06 0)
(0.0002270128451 6.857930553e-06 0)
(0.0002280552093 6.771659809e-06 0)
(0.000229064503 6.598941992e-06 0)
(0.0002300360861 6.354254579e-06 0)
(0.0002309681406 6.051246539e-06 0)
(0.0002318612711 5.702312385e-06 0)
(0.0002327179363 5.318354483e-06 0)
(0.0002335418683 4.908718404e-06 0)
(0.0002343376029 4.481222045e-06 0)
(0.0002351101196 4.042238562e-06 0)
(0.0002358645552 3.596824339e-06 0)
(0.0002366059795 3.148880762e-06 0)
(0.0002373392345 2.701332557e-06 0)
(0.0002380688309 2.256306388e-06 0)
(0.0002387988899 1.815304043e-06 0)
(0.0002395331149 1.379344163e-06 0)
(0.0002402748039 9.491109904e-07 0)
(0.0002410268425 5.250635534e-07 0)
(0.0002417918713 1.075360492e-07 0)
(0.0002425720627 -3.031648454e-07 0)
(0.0002433692646 -7.06742514e-07 0)
(0.0002441851482 -1.10286715e-06 0)
(0.0002450210947 -1.491178714e-06 0)
(0.0002458781439 -1.871319067e-06 0)
(0.0002467571198 -2.242715266e-06 0)
(0.0002476587342 -2.604629435e-06 0)
(0.000248583534 -2.95616591e-06 0)
(0.0002495318338 -3.296290477e-06 0)
(0.0002505037018 -3.623902408e-06 0)
(0.000251499036 -3.937895107e-06 0)
(0.0002525176262 -4.237185533e-06 0)
(0.0002535591076 -4.520680247e-06 0)
(0.0002546229135 -4.787259591e-06 0)
(0.0002557082813 -5.035808489e-06 0)
(0.0002568142732 -5.265254438e-06 0)
(0.0002579397841 -5.474589678e-06 0)
(0.0002590835465 -5.662885153e-06 0)
(0.0002602441389 -5.829305435e-06 0)
(0.0002614200002 -5.973124274e-06 0)
(0.0002626094446 -6.093737495e-06 0)
(0.0002186809003 4.779251334e-07 0)
(0.0002188458436 1.419637167e-06 0)
(0.000219189897 2.31322713e-06 0)
(0.0002197050256 3.123893175e-06 0)
(0.0002203541772 3.82944437e-06 0)
(0.0002211031179 4.420044697e-06 0)
(0.0002219272203 4.892282247e-06 0)
(0.000222806053 5.245887682e-06 0)
(0.0002237198674 5.483819775e-06 0)
(0.0002246504468 5.612589841e-06 0)
(0.0002255828877 5.641370009e-06 0)
(0.0002265060376 5.580688216e-06 0)
(0.0002274119217 5.441560404e-06 0)
(0.0002282951655 5.235026532e-06 0)
(0.0002291526993 4.971782145e-06 0)
(0.0002299835085 4.661832582e-06 0)
(0.0002307882802 4.314243682e-06 0)
(0.0002315689995 3.937015878e-06 0)
(0.0002323285857 3.537048842e-06 0)
(0.0002330705928 3.120163258e-06 0)
(0.0002337989579 2.691165475e-06 0)
(0.0002345177925 2.253944474e-06 0)
(0.0002352312163 1.811592162e-06 0)
(0.0002359432374 1.366519348e-06 0)
(0.0002366576526 9.206286911e-07 0)
(0.000237377988 4.753562318e-07 0)
(0.0002381075363 3.181433267e-08 0)
(0.0002388492602 -4.090926009e-07 0)
(0.0002396056836 -8.466129464e-07 0)
(0.0002403791435 -1.280042394e-06 0)
(0.0002411717128 -1.708682076e-06 0)
(0.0002419851966 -2.131831414e-06 0)
(0.0002428211277 -2.548779305e-06 0)
(0.0002436807709 -2.95873217e-06 0)
(0.000244565152 -3.360756632e-06 0)
(0.0002454750757 -3.753821219e-06 0)
(0.0002464111156 -4.136831144e-06 0)
(0.000247373604 -4.508627835e-06 0)
(0.0002483626523 -4.867971375e-06 0)
(0.0002493781915 -5.21353013e-06 0)
(0.0002504199822 -5.543925259e-06 0)
(0.0002514875833 -5.857774733e-06 0)
(0.0002525803234 -6.153710248e-06 0)
(0.0002536973075 -6.430390152e-06 0)
(0.0002548374358 -6.686520713e-06 0)
(0.000255999417 -6.920879651e-06 0)
(0.0002571817763 -7.132337112e-06 0)
(0.0002583828665 -7.31987455e-06 0)
(0.0002596008853 -7.482601999e-06 0)
(0.0002608338949 -7.619772788e-06 0)
(0.0002186765734 3.764979473e-07 0)
(0.0002188072998 1.119675779e-06 0)
(0.0002190808717 1.829258925e-06 0)
(0.0002194937694 2.479743825e-06 0)
(0.0002200203179 3.0525619e-06 0)
(0.0002206359856 3.537035958e-06 0)
(0.0002213222139 3.927774599e-06 0)
(0.000222062958 4.222764188e-06 0)
(0.0002228426009 4.422925971e-06 0)
(0.0002236465659 4.531977228e-06 0)
(0.0002244624737 4.555838049e-06 0)
(0.000225280548 4.501794599e-06 0)
(0.0002260933998 4.377832712e-06 0)
(0.0002268957123 4.192211416e-06 0)
(0.0002276840297 3.953141066e-06 0)
(0.0002284565735 3.668497524e-06 0)
(0.0002292130043 3.345598311e-06 0)
(0.0002299541455 2.991064694e-06 0)
(0.0002306817174 2.610758463e-06 0)
(0.0002313981059 2.20977037e-06 0)
(0.000232106161 1.792447008e-06 0)
(0.0002328090254 1.362437562e-06 0)
(0.0002335099779 9.227815538e-07 0)
(0.0002342123707 4.759801618e-07 0)
(0.0002349194793 2.404832716e-08 0)
(0.0002356344047 -4.313086086e-07 0)
(0.0002363600863 -8.88656783e-07 0)
(0.0002370993109 -1.346766383e-06 0)
(0.0002378546482 -1.804530542e-06 0)
(0.0002386284368 -2.260936029e-06 0)
(0.0002394227744 -2.715001022e-06 0)
(0.0002402395259 -3.165734112e-06 0)
(0.0002410803266 -3.612104653e-06 0)
(0.0002419465762 -4.053011066e-06 0)
(0.0002428394347 -4.487263996e-06 0)
(0.0002437598275 -4.913584987e-06 0)
(0.0002447084505 -5.330607294e-06 0)
(0.0002456857694 -5.736870667e-06 0)
(0.0002466920189 -6.130821673e-06 0)
(0.0002477272039 -6.510833384e-06 0)
(0.0002487910963 -6.875243738e-06 0)
(0.0002498832256 -7.222388257e-06 0)
(0.000251002872 -7.550617358e-06 0)
(0.000252149069 -7.858312114e-06 0)
(0.0002533206129 -8.143908178e-06 0)
(0.0002545160733 -8.405924024e-06 0)
(0.0002557338053 -8.642987494e-06 0)
(0.0002569719645 -8.853859249e-06 0)
(0.000258228528 -9.037453619e-06 0)
(0.0002595013185 -9.192856492e-06 0)
(0.0002186734568 2.954705532e-07 0)
(0.0002187794559 8.792230979e-07 0)
(0.0002190015881 1.438278104e-06 0)
(0.0002193385445 1.953412526e-06 0)
(0.000219771918 2.409714537e-06 0)
(0.0002202840495 2.797540424e-06 0)
(0.0002208612734 3.11116269e-06 0)
(0.00022149121 3.347639074e-06 0)
(0.000222161452 3.506409963e-06 0)
(0.0002228602194 3.589109691e-06 0)
(0.0002235772649 3.599196444e-06 0)
(0.0002243042077 3.541429786e-06 0)
(0.0002250344571 3.421384905e-06 0)
(0.000225763051 3.245084284e-06 0)
(0.0002264865294 3.018711701e-06 0)
(0.0002272028079 2.748369796e-06 0)
(0.0002279110142 2.439884775e-06 0)
(0.0002286112938 2.098668585e-06 0)
(0.0002293046152 1.729640294e-06 0)
(0.0002299925923 1.337182311e-06 0)
(0.0002306773168 9.251575986e-07 0)
(0.0002313612289 4.96904923e-07 0)
(0.0002320470028 5.527582304e-08 0)
(0.0002327373653 -3.972690463e-07 0)
(0.0002334351102 -8.586625079e-07 0)
(0.0002341430631 -1.327074776e-06 0)
(0.0002348639139 -1.800898211e-06 0)
(0.0002356002344 -2.278705846e-06 0)
(0.0002363544636 -2.759183738e-06 0)
(0.0002371288809 -3.241079143e-06 0)
(0.0002379255865 -3.723152047e-06 0)
(0.0002387464897 -4.204137736e-06 0)
(0.0002395932993 -4.682720556e-06 0)
(0.0002404675118 -5.157513017e-06 0)
(0.0002413704015 -5.627038188e-06 0)
(0.0002423030153 -6.089718685e-06 0)
(0.0002432661672 -6.543875614e-06 0)
(0.0002442604283 -6.987734294e-06 0)
(0.0002452861161 -7.419435699e-06 0)
(0.0002463432868 -7.837054478e-06 0)
(0.0002474317309 -8.238622429e-06 0)
(0.0002485509666 -8.622153969e-06 0)
(0.000249700234 -8.985671382e-06 0)
(0.0002508784933 -9.327231856e-06 0)
(0.0002520844288 -9.644958153e-06 0)
(0.00025331646 -9.937071129e-06 0)
(0.0002545727558 -1.02019212e-05 0)
(0.0002558512539 -1.043801734e-05 0)
(0.000257149686 -1.064405301e-05 0)
(0.0002584656062 -1.081892838e-05 0)
(0.0002186711107 2.293072082e-07 0)
(0.0002187585581 6.824786257e-07 0)
(0.0002189420231 1.116933948e-06 0)
(0.0002192213967 1.517927262e-06 0)
(0.0002195830586 1.873550092e-06 0)
(0.000220014028 2.175435621e-06 0)
(0.0002205042085 2.417970442e-06 0)
(0.000221044113 2.597685127e-06 0)
(0.0002216239465 2.713046271e-06 0)
(0.000222234255 2.764319715e-06 0)
(0.0002228666671 2.753306548e-06 0)
(0.000223514154 2.682980693e-06 0)
(0.000224171005 2.557131228e-06 0)
(0.000224832759 2.380065058e-06 0)
(0.0002254961484 2.156366325e-06 0)
(0.0002261590269 1.890693495e-06 0)
(0.0002268202601 1.587616999e-06 0)
(0.0002274795934 1.251476723e-06 0)
(0.0002281375045 8.863270958e-07 0)
(0.0002287950903 4.958643856e-07 0)
(0.0002294539257 8.339679664e-08 0)
(0.0002301159113 -3.481111649e-07 0)
(0.0002307832261 -7.960441118e-07 0)
(0.0002314582424 -1.258094355e-06 0)
(0.0002321434285 -1.732183628e-06 0)
(0.0002328412932 -2.216494599e-06 0)
(0.0002335543191 -2.709378348e-06 0)
(0.0002342849389 -3.209297617e-06 0)
(0.0002350355106 -3.714784968e-06 0)
(0.0002358082849 -4.22440237e-06 0)
(0.0002366053784 -4.736703286e-06 0)
(0.0002374287529 -5.250199865e-06 0)
(0.0002382801982 -5.763336668e-06 0)
(0.0002391613149 -6.274469562e-06 0)
(0.0002400734973 -6.781849346e-06 0)
(0.0002410179178 -7.283612473e-06 0)
(0.0002419955107 -7.777780225e-06 0)
(0.0002430069556 -8.262264496e-06 0)
(0.000244052661 -8.734878679e-06 0)
(0.0002451327504 -9.193354253e-06 0)
(0.0002462470495 -9.635364039e-06 0)
(0.0002473950749 -1.00585514e-05 0)
(0.0002485760248 -1.046056305e-05 0)
(0.0002497887752 -1.0839084e-05 0)
(0.0002510318828 -1.119187465e-05 0)
(0.0002523035946 -1.151680932e-05 0)
(0.0002536018652 -1.181191459e-05 0)
(0.0002549243788 -1.207540577e-05 0)
(0.0002562685791 -1.230571975e-05 0)
(0.0002576317049 -1.250154304e-05 0)
(0.0002186693032 1.744028232e-07 0)
(0.0002187424819 5.189992241e-07 0)
(0.0002188961501 8.490640616e-07 0)
(0.0002191308371 1.153021137e-06 0)
(0.0002194361697 1.421236507e-06 0)
(0.0002198024077 1.646530701e-06 0)
(0.0002202220657 1.8236792e-06 0)
(0.0002206879315 1.949086628e-06 0)
(0.000221192337 2.020705334e-06 0)
(0.000221727741 2.037946948e-06 0)
(0.0002222873517 2.001486324e-06 0)
(0.000222865342 1.913003858e-06 0)
(0.0002234568534 1.774930291e-06 0)
(0.0002240579804 1.590221693e-06 0)
(0.0002246657606 1.362167863e-06 0)
(0.0002252781474 1.094218165e-06 0)
(0.0002258939207 7.898898632e-07 0)
(0.0002265126259 4.525814598e-07 0)
(0.0002271344731 8.551725001e-08 0)
(0.000227760184 -3.082592188e-07 0)
(0.0002283909597 -7.259540375e-07 0)
(0.000229028396 -1.165005103e-06 0)
(0.0002296743539 -1.623075112e-06 0)
(0.0002303309004 -2.098058567e-06 0)
(0.0002310002486 -2.588033878e-06 0)
(0.0002316847049 -3.09123719e-06 0)
(0.0002323866195 -3.606013205e-06 0)
(0.0002331083448 -4.130772491e-06 0)
(0.0002338522006 -4.663956809e-06 0)
(0.0002346204433 -5.204004305e-06 0)
(0.0002354152361 -5.749315064e-06 0)
(0.0002362386234 -6.298219912e-06 0)
(0.000237092506 -6.848954349e-06 0)
(0.0002379786172 -7.399637951e-06 0)
(0.0002388984977 -7.948259388e-06 0)
(0.0002398534711 -8.492667828e-06 0)
(0.0002408446192 -9.030571361e-06 0)
(0.0002418727578 -9.559542388e-06 0)
(0.0002429384117 -1.007702987e-05 0)
(0.0002440417925 -1.058037876e-05 0)
(0.000245182777 -1.10668568e-05 0)
(0.0002463608902 -1.153368786e-05 0)
(0.0002475752916 -1.197809041e-05 0)
(0.0002488247677 -1.239731985e-05 0)
(0.0002501077334 -1.278871415e-05 0)
(0.0002514222395 -1.314974163e-05 0)
(0.0002527659916 -1.347804904e-05 0)
(0.000254136376 -1.377150772e-05 0)
(0.0002555304951 -1.402825561e-05 0)
(0.0002569452117 -1.42467331e-05 0)
(0.000218667877 1.282449162e-07 0)
(0.0002187298102 3.814111919e-07 0)
(0.0002188599589 6.230360365e-07 0)
(0.0002190591868 8.438353717e-07 0)
(0.0002193194161 1.035908872e-06 0)
(0.000219633214 1.19311491e-06 0)
(0.0002199950048 1.310716984e-06 0)
(0.0002203993193 1.38519678e-06 0)
(0.0002208401711 1.414243752e-06 0)
(0.000221311561 1.39671124e-06 0)
(0.0002218080053 1.332481165e-06 0)
(0.000222324721 1.222285466e-06 0)
(0.0002228576412 1.067526934e-06 0)
(0.0002234034251 8.701138613e-07 0)
(0.000223959466 6.323096146e-07 0)
(0.0002245239421 3.566012654e-07 0)
(0.0002250956985 4.553678645e-08 0)
(0.0002256741521 -2.982701899e-07 0)
(0.0002262593647 -6.722826989e-07 0)
(0.0002268519229 -1.074065795e-06 0)
(0.0002274528169 -1.501305208e-06 0)
(0.0002280633934 -1.951855049e-06 0)
(0.0002286852917 -2.423720122e-06 0)
(0.0002293203873 -2.91504104e-06 0)
(0.0002299707377 -3.424071705e-06 0)
(0.0002306385322 -3.949153247e-06 0)
(0.0002313260462 -4.488684034e-06 0)
(0.0002320355999 -5.04108591e-06 0)
(0.0002327695235 -5.604770355e-06 0)
(0.0002335301243 -6.17810518e-06 0)
(0.0002343196558 -6.759382398e-06 0)
(0.0002351402859 -7.346788777e-06 0)
(0.0002359940669 -7.938380424e-06 0)
(0.0002368829037 -8.532062194e-06 0)
(0.0002378085224 -9.125572472e-06 0)
(0.0002387724372 -9.716474099e-06 0)
(0.0002397759171 -1.03021523e-05 0)
(0.0002408199516 -1.087982032e-05 0)
(0.0002419052173 -1.144653309e-05 0)
(0.0002430320451 -1.199920925e-05 0)
(0.0002442003906 -1.25346615e-05 0)
(0.0002454098078 -1.304963505e-05 0)
(0.0002466594291 -1.354085333e-05 0)
(0.0002479479523 -1.400507001e-05 0)
(0.0002492736371 -1.443912582e-05 0)
(0.000250634312 -1.484000871e-05 0)
(0.0002520273932 -1.520491472e-05 0)
(0.0002534499155 -1.553130696e-05 0)
(0.0002548985745 -1.581696976e-05 0)
(0.0002563697811 -1.606005522e-05 0)
(0.0002186667254 8.904033973e-08 0)
(0.0002187195946 2.644419119e-07 0)
(0.0002188307733 4.304838273e-07 0)
(0.0002190012873 5.795744787e-07 0)
(0.0002192247296 7.051361649e-07 0)
(0.0002194953412 8.01881854e-07 0)
(0.0002198089448 8.655438043e-07 0)
(0.000220161394 8.927571408e-07 0)
(0.0002205480218 8.811034765e-07 0)
(0.0002209640663 8.290881071e-07 0)
(0.0002214051231 7.360466656e-07 0)
(0.0002218673048 6.020251668e-07 0)
(0.0002223472608 4.2765443e-07 0)
(0.0002228421976 2.140275685e-07 0)
(0.0002233499134 -3.741944726e-08 0)
(0.0002238687503 -3.250002479e-07 0)
(0.0002243976737 -6.469249378e-07 0)
(0.0002249362444 -1.001283198e-06 0)
(0.0002254844691 -1.386140281e-06 0)
(0.0002260428097 -1.799622677e-06 0)
(0.0002266121353 -2.239920781e-06 0)
(0.0002271936669 -2.705299786e-06 0)
(0.0002277889263 -3.194100841e-06 0)
(0.0002283996855 -3.704734043e-06 0)
(0.0002290279212 -4.235664572e-06 0)
(0.0002296757715 -4.78539163e-06 0)
(0.0002303454963 -5.352422315e-06 0)
(0.0002310394404 -5.93524123e-06 0)
(0.0002317599983 -6.532278464e-06 0)
(0.0002325095809 -7.141877732e-06 0)
(0.0002332905811 -7.762265389e-06 0)
(0.0002341053397 -8.391521209e-06 0)
(0.0002349561094 -9.027552107e-06 0)
(0.0002358450178 -9.668069997e-06 0)
(0.0002367740281 -1.031057483e-05 0)
(0.0002377448983 -1.095234391e-05 0)
(0.0002387591374 -1.159042862e-05 0)
(0.000239817962 -1.222165964e-05 0)
(0.0002409222508 -1.284266135e-05 0)
(0.0002420725008 -1.344987625e-05 0)
(0.0002432687865 -1.403959964e-05 0)
(0.0002445107223 -1.460802474e-05 0)
(0.0002457974328 -1.515129762e-05 0)
(0.0002471275318 -1.566558106e-05 0)
(0.0002484991122 -1.614712544e-05 0)
(0.0002499097509 -1.659234461e-05 0)
(0.0002513565275 -1.699789367e-05 0)
(0.0002528360597 -1.736074511e-05 0)
(0.000254344555 -1.767825939e-05 0)
(0.0002558778767 -1.794824596e-05 0)
(0.0002186657728 5.548500344e-08 0)
(0.0002187111737 1.642579916e-07 0)
(0.0002188067324 2.652917916e-07 0)
(0.0002189535323 3.522540856e-07 0)
(0.0002191464089 4.195784946e-07 0)
(0.000219380837 4.626707584e-07 0)
(0.0002196536645 4.776891011e-07 0)
(0.0002199617581 4.614284341e-07 0)
(0.000220301497 4.114507427e-07 0)
(0.0002206691043 3.260492156e-07 0)
(0.0002210610529 2.041832075e-07 0)
(0.0002214742098 4.539875286e-08 0)
(0.0002219058464 -1.502601543e-07 0)
(0.000222353656 -3.823417865e-07 0)
(0.000222815799 -6.50074702e-07 0)
(0.0002232909238 -9.52450027e-07 0)
(0.000223778175 -1.288251142e-06 0)
(0.0002242771709 -1.656197882e-06 0)
(0.0002247879538 -2.054950659e-06 0)
(0.0002253109777 -2.48314714e-06 0)
(0.0002258470788 -2.939429567e-06 0)
(0.000226397433 -3.422459132e-06 0)
(0.0002269635148 -3.930920909e-06 0)
(0.0002275470589 -4.463519064e-06 0)
(0.0002281500246 -5.018963989e-06 0)
(0.0002287745605 -5.595952743e-06 0)
(0.0002294229701 -6.193144396e-06 0)
(0.0002300976785 -6.809131546e-06 0)
(0.0002308011988 -7.442409434e-06 0)
(0.0002315360988 -8.091343955e-06 0)
(0.0002323049655 -8.754139541e-06 0)
(0.0002331103682 -9.428807959e-06 0)
(0.0002339548192 -1.011313933e-05 0)
(0.0002348407303 -1.080467673e-05 0)
(0.000235770367 -1.150069586e-05 0)
(0.000236745798 -1.219819111e-05 0)
(0.0002377688422 -1.289386957e-05 0)
(0.0002388410123 -1.358415448e-05 0)
(0.0002399634569 -1.426519953e-05 0)
(0.000241136903 -1.493291514e-05 0)
(0.0002423615997 -1.558300766e-05 0)
(0.0002436372675 -1.621103206e-05 0)
(0.0002449630543 -1.681245775e-05 0)
(0.0002463375028 -1.73827467e-05 0)
(0.0002477585322 -1.791744208e-05 0)
(0.0002492234366 -1.841226451e-05 0)
(0.0002507289041 -1.886321215e-05 0)
(0.0002522710564 -1.926665997e-05 0)
(0.0002538455111 -1.961945276e-05 0)
(0.0002554474642 -1.991898622e-05 0)
(0.0002186649732 2.656378763e-08 0)
(0.0002187041097 7.791467144e-08 0)
(0.0002187865522 1.227832818e-07 0)
(0.0002189133815 1.557512972e-07 0)
(0.0002190803918 1.720100503e-07 0)
(0.0002192839959 1.675137513e-07 0)
(0.0002195217682 1.387740584e-07 0)
(0.0002197913356 8.284287394e-08 0)
(0.0002200899259 -2.735252363e-09 0)
(0.0002204145482 -1.198342525e-07 0)
(0.0002207623882 -2.697639466e-07 0)
(0.0002211309375 -4.533459706e-07 0)
(0.0002215180014 -6.709855095e-07 0)
(0.000221921718 -9.227341934e-07 0)
(0.0002223406011 -1.208350057e-06 0)
(0.0002227735683 -1.52736507e-06 0)
(0.0002232199482 -1.87913508e-06 0)
(0.0002236794768 -2.262903816e-06 0)
(0.0002241522823 -2.677831334e-06 0)
(0.0002246388672 -3.123021348e-06 0)
(0.0002251400876 -3.597546405e-06 0)
(0.0002256571267 -4.100461175e-06 0)
(0.0002261914668 -4.63080495e-06 0)
(0.0002267448615 -5.187595705e-06 0)
(0.0002273193083 -5.769817198e-06 0)
(0.0002279170202 -6.376399975e-06 0)
(0.0002285403972 -7.006197103e-06 0)
(0.000229191997 -7.657955559e-06 0)
(0.0002298745044 -8.330284295e-06 0)
(0.0002305906993 -9.021620075e-06 0)
(0.0002313434214 -9.730192226e-06 0)
(0.0002321355318 -1.045398747e-05 0)
(0.0002329698697 -1.119071624e-05 0)
(0.0002338492047 -1.193778196e-05 0)
(0.0002347761827 -1.269225506e-05 0)
(0.0002357532672 -1.34508535e-05 0)
(0.0002367826739 -1.42099318e-05 0)
(0.0002378663013 -1.496548071e-05 0)
(0.0002390056575 -1.571313949e-05 0)
(0.0002402017844 -1.64482229e-05 0)
(0.0002414551841 -1.716576437e-05 0)
(0.0002427657484 -1.786057657e-05 0)
(0.0002441326971 -1.852732986e-05 0)
(0.0002455545282 -1.91606477e-05 0)
(0.0002470289864 -1.975521747e-05 0)
(0.0002485530524 -2.030591311e-05 0)
(0.0002501229594 -2.080792482e-05 0)
(0.0002517342371 -2.125688964e-05 0)
(0.0002533817865 -2.164901518e-05 0)
(0.0002550599831 -2.198118876e-05 0)
(0.0002186643179 1.599936642e-09 0)
(0.0002186981851 3.358060555e-09 0)