/*--------------------------------*- C++ -*----------------------------------*\
| =========                 |                                                 |
| \\      /  F ield         | foam-extend: Open Source CFD                    |
|  \\    /   O peration     | Version:     4.1                                |
|   \\  /    A nd           | Web:         http://www.foam-extend.org         |
|    \\/     M anipulation  |                                                 |
\*---------------------------------------------------------------------------*/
FoamFile
{
    version     2.0;
    format      ascii;
    class       volVectorField;
    location    "50000";
    object      vorticity;
}
// * * * * * * * * * * * * * * * * * * * * * * * * * * * * * * * * * * * * * //

dimensions      [0 0 -1 0 0 0 0];

internalField   nonuniform List<vector> 
15920
(
(0 -0 -0.008257148897)
(0 -0 -0.008406218173)
(0 -0 -0.008450689044)
(0 -0 -0.008326537499)
(0 -0 -0.008117101766)
(0 -0 -0.007880485246)
(0 -0 -0.007627663179)
(0 -0 -0.007359910625)
(0 -0 -0.007085742213)
(0 -0 -0.006816058358)
(0 -0 -0.006558470715)
(0 -0 -0.006317159716)
(0 -0 -0.006094489461)
(0 -0 -0.005891729981)
(0 -0 -0.005709150742)
(0 -0 -0.005546181197)
(0 -0 -0.005401702695)
(0 -0 -0.005274305693)
(0 -0 -0.005162457062)
(0 -0 -0.005064607313)
(0 -0 -0.004979264124)
(0 -0 -0.004905039639)
(0 -0 -0.004840675392)
(0 -0 -0.004785050308)
(0 -0 -0.004737177635)
(0 -0 -0.00469617798)
(0 -0 -0.004661306282)
(0 -0 -0.004631955714)
(0 -0 -0.004607705601)
(0 -0 -0.004588020163)
(0 -0 -0.004572380948)
(0 -0 -0.004560442338)
(0 -0 -0.004551948402)
(0 -0 -0.00454664927)
(0 -0 -0.004544300337)
(0 -0 -0.004544678796)
(0 -0 -0.004547583271)
(0 -0 -0.004552825522)
(0 -0 -0.004560219973)
(0 -0 -0.004569596971)
(0 -0 -0.004580780356)
(0 -0 -0.004593589095)
(0 -0 -0.004607846583)
(0 -0 -0.004623381067)
(0 -0 -0.004640022618)
(0 -0 -0.004657601975)
(0 -0 -0.004675950744)
(0 -0 -0.004694901667)
(0 -0 -0.004714288831)
(0 -0 -0.004733948018)
(0 -0 0.0003529270393)
(0 -0 -1.039231534e-05)
(0 -0 -0.0003978314451)
(0 -0 -0.0007982497728)
(0 -0 -0.001194838321)
(0 -0 -0.001571396701)
(0 -0 -0.001918838797)
(0 -0 -0.0022321651)
(0 -0 -0.002507488718)
(0 -0 -0.002742657035)
(0 -0 -0.002938109886)
(0 -0 -0.00309638989)
(0 -0 -0.003221148029)
(0 -0 -0.003316482859)
(0 -0 -0.003386614378)
(0 -0 -0.003435657542)
(0 -0 -0.003467434621)
(0 -0 -0.003485358789)
(0 -0 -0.003492391883)
(0 -0 -0.003491048774)
(0 -0 -0.003483424943)
(0 -0 -0.003471236211)
(0 -0 -0.003455864965)
(0 -0 -0.003438408139)
(0 -0 -0.003419724094)
(0 -0 -0.003400481174)
(0 -0 -0.003381178536)
(0 -0 -0.003362180082)
(0 -0 -0.003343720952)
(0 -0 -0.003326006726)
(0 -0 -0.003309184125)
(0 -0 -0.003293349346)
(0 -0 -0.003278565189)
(0 -0 -0.003264870987)
(0 -0 -0.003252284638)
(0 -0 -0.003240805879)
(0 -0 -0.003230430399)
(0 -0 -0.003221097495)
(0 -0 -0.003212761252)
(0 -0 -0.003205413832)
(0 -0 -0.003199050701)
(0 -0 -0.003193659686)
(0 -0 -0.003189224578)
(0 -0 -0.00318572807)
(0 -0 -0.003183151879)
(0 -0 -0.003181476345)
(0 -0 -0.003180680429)
(0 -0 -0.003180741824)
(0 -0 -0.003181636934)
(0 -0 -0.003183340805)
(0 -0 0.0001727324415)
(0 -0 0.0002514375432)
(0 -0 0.0003150037808)
(0 -0 0.0003425374232)
(0 -0 0.0003284543736)
(0 -0 0.000275040467)
(0 -0 0.0001888207481)
(0 -0 7.771297019e-05)
(0 -0 -5.038879629e-05)
(0 -0 -0.0001882347885)
(0 -0 -0.0003296323228)
(0 -0 -0.000469679629)
(0 -0 -0.0006047674893)
(0 -0 -0.0007324307183)
(0 -0 -0.0008511552053)
(0 -0 -0.0009601807658)
(0 -0 -0.001059312465)
(0 -0 -0.001148752896)
(0 -0 -0.001228964798)
(0 -0 -0.001300565446)
(0 -0 -0.001364249045)
(0 -0 -0.001420732159)
(0 -0 -0.001470717467)
(0 -0 -0.001514871588)
(0 -0 -0.001553812462)
(0 -0 -0.001588105376)
(0 -0 -0.001618256597)
(0 -0 -0.001644722463)
(0 -0 -0.001667899507)
(0 -0 -0.001688188038)
(0 -0 -0.001705907365)
(0 -0 -0.001721336435)
(0 -0 -0.001734731747)
(0 -0 -0.001746322497)
(0 -0 -0.001756316255)
(0 -0 -0.00176488986)
(0 -0 -0.001772153201)
(0 -0 -0.001778291458)
(0 -0 -0.001783461445)
(0 -0 -0.00178780428)
(0 -0 -0.001791447018)
(0 -0 -0.001794505516)
(0 -0 -0.001797087335)
(0 -0 -0.001799292865)
(0 -0 -0.001801215502)
(0 -0 -0.00180294192)
(0 -0 -0.001804552529)
(0 -0 -0.001806121917)
(0 -0 -0.001807719181)
(0 -0 -0.001809408207)
(0 -0 0.0001457517725)
(0 -0 0.0001485713727)
(0 -0 0.0001593089008)
(0 -0 0.0001781877127)
(0 -0 0.0002026486692)
(0 -0 0.0002285488294)
(0 -0 0.0002514842625)
(0 -0 0.0002679463924)
(0 -0 0.0002757313528)
(0 -0 0.0002738798629)
(0 -0 0.0002624593658)
(0 -0 0.000242283414)
(0 -0 0.0002146132681)
(0 -0 0.0001809034125)
(0 -0 0.0001426192131)
(0 -0 0.0001011212399)
(0 -0 5.760213184e-05)
(0 -0 1.306182729e-05)
(0 -0 -3.169150763e-05)
(0 -0 -7.602547176e-05)
(0 -0 -0.0001194602012)
(0 -0 -0.0001616430826)
(0 -0 -0.0002023244858)
(0 -0 -0.0002413361652)
(0 -0 -0.0002785728884)
(0 -0 -0.0003139774862)
(0 -0 -0.0003475287882)
(0 -0 -0.0003792327504)
(0 -0 -0.000409114969)
(0 -0 -0.0004372180593)
(0 -0 -0.0004635947698)
(0 -0 -0.0004883046545)
(0 -0 -0.0005114178001)
(0 -0 -0.0005329834384)
(0 -0 -0.0005530630215)
(0 -0 -0.0005717454528)
(0 -0 -0.0005891657174)
(0 -0 -0.0006054367555)
(0 -0 -0.0006206349361)
(0 -0 -0.0006348277052)
(0 -0 -0.0006480801248)
(0 -0 -0.0006604567076)
(0 -0 -0.0006720223039)
(0 -0 -0.0006828421227)
(0 -0 -0.0006929813859)
(0 -0 -0.0007025049586)
(0 -0 -0.000711477008)
(0 -0 -0.0007199606705)
(0 -0 -0.0007280177453)
(0 -0 -0.000735708438)
(0 -0 0.000101435672)
(0 -0 0.0001023772444)
(0 -0 0.0001036035094)
(0 -0 0.0001056214806)
(0 -0 0.0001091713068)
(0 -0 0.0001148595542)
(0 -0 0.0001228892725)
(0 -0 0.0001329945741)
(0 -0 0.0001445367242)
(0 -0 0.0001566616658)
(0 -0 0.0001684650968)
(0 -0 0.0001791314052)
(0 -0 0.0001880200217)
(0 -0 0.0001946968673)
(0 -0 0.000198926803)
(0 -0 0.0002006443756)
(0 -0 0.000199915361)
(0 -0 0.0001968976809)
(0 -0 0.0001918068506)
(0 -0 0.0001848883324)
(0 -0 0.0001763970862)
(0 -0 0.0001665834895)
(0 -0 0.000155684392)
(0 -0 0.0001439180376)
(0 -0 0.0001314817244)
(0 -0 0.0001185512909)
(0 -0 0.0001052817084)
(0 -0 9.1808338e-05)
(0 -0 7.824836874e-05)
(0 -0 6.470243796e-05)
(0 -0 5.125618614e-05)
(0 -0 3.798222722e-05)
(0 -0 2.494428059e-05)
(0 -0 1.216955651e-05)
(0 -0 -3.079057013e-07)
(0 -0 -1.246577757e-05)
(0 -0 -2.433104656e-05)
(0 -0 -3.584473267e-05)
(0 -0 -4.699046539e-05)
(0 -0 -5.776176323e-05)
(0 -0 -6.81574479e-05)
(0 -0 -7.818057888e-05)
(0 -0 -8.783776257e-05)
(0 -0 -9.713867642e-05)
(0 -0 -0.0001060957391)
(0 -0 -0.0001147238119)
(0 -0 -0.0001230398869)
(0 -0 -0.0001310627668)
(0 -0 -0.000138812757)
(0 -0 -0.0001463113757)
(0 -0 7.759633723e-05)
(0 -0 7.789526133e-05)
(0 -0 7.827714407e-05)
(0 -0 7.869663913e-05)
(0 -0 7.916055614e-05)
(0 -0 7.975067916e-05)
(0 -0 8.061436037e-05)
(0 -0 8.192694442e-05)
(0 -0 8.384212588e-05)
(0 -0 8.645035667e-05)
(0 -0 8.975821045e-05)
(0 -0 9.369039306e-05)
(0 -0 9.810763408e-05)
(0 -0 0.0001028314103)
(0 -0 0.000107668556)
(0 -0 0.0001124317858)
(0 -0 0.0001169542401)
(0 -0 0.0001210978416)
(0 -0 0.0001247564287)
(0 -0 0.0001278551452)
(0 -0 0.0001303475191)
(0 -0 0.0001322113653)
(0 -0 0.0001334443243)
(0 -0 0.0001340595611)
(0 -0 0.000134081905)
(0 -0 0.0001335445976)
(0 -0 0.0001324864537)
(0 -0 0.0001309503534)
(0 -0 0.0001289780265)
(0 -0 0.000126613571)
(0 -0 0.000123901763)
(0 -0 0.000120884364)
(0 -0 0.0001176076606)
(0 -0 0.0001140896646)
(0 -0 0.0001103534238)
(0 -0 0.0001064410938)
(0 -0 0.0001024312607)
(0 -0 9.835824099e-05)
(0 -0 9.424451592e-05)
(0 -0 9.010808557e-05)
(0 -0 8.596449208e-05)
(0 -0 8.182734221e-05)
(0 -0 7.770834713e-05)
(0 -0 7.361733176e-05)
(0 -0 6.956230546e-05)
(0 -0 6.554955507e-05)
(0 -0 6.158373829e-05)
(0 -0 5.766798141e-05)
(0 -0 5.380398565e-05)
(0 -0 4.999213996e-05)
(0 -0 6.064082415e-05)
(0 -0 6.08323424e-05)
(0 -0 6.108784968e-05)
(0 -0 6.139380099e-05)
(0 -0 6.17355359e-05)
(0 -0 6.209530365e-05)
(0 -0 6.245757311e-05)
(0 -0 6.281867253e-05)
(0 -0 6.319261698e-05)
(0 -0 6.360909943e-05)
(0 -0 6.410615684e-05)
(0 -0 6.472164703e-05)
(0 -0 6.548596747e-05)
(0 -0 6.641709709e-05)
(0 -0 6.751843443e-05)
(0 -0 6.877927517e-05)
(0 -0 7.017717012e-05)
(0 -0 7.168120827e-05)
(0 -0 7.325544853e-05)
(0 -0 7.486201315e-05)
(0 -0 7.646359633e-05)
(0 -0 7.802531083e-05)
(0 -0 7.951590335e-05)
(0 -0 8.09084521e-05)
(0 -0 8.218059303e-05)
(0 -0 8.331473437e-05)
(0 -0 8.429656126e-05)
(0 -0 8.51161273e-05)
(0 -0 8.577030294e-05)
(0 -0 8.62572009e-05)
(0 -0 8.657699914e-05)
(0 -0 8.673168312e-05)
(0 -0 8.672033297e-05)
(0 -0 8.656947132e-05)
(0 -0 8.629477421e-05)
(0 -0 8.590404101e-05)
(0 -0 8.540484227e-05)
(0 -0 8.480509098e-05)
(0 -0 8.411284648e-05)
(0 -0 8.333618938e-05)
(0 -0 8.248307608e-05)
(0 -0 8.156125336e-05)
(0 -0 8.057817944e-05)
(0 -0 7.954094822e-05)
(0 -0 7.845623588e-05)
(0 -0 7.7330265e-05)
(0 -0 7.61687758e-05)
(0 -0 7.497700343e-05)
(0 -0 7.375966379e-05)
(0 -0 7.252094818e-05)
(0 -0 4.765329032e-05)
(0 -0 4.778842009e-05)
(0 -0 4.796606976e-05)
(0 -0 4.818001478e-05)
(0 -0 4.842638219e-05)
(0 -0 4.8700333e-05)
(0 -0 4.899460724e-05)
(0 -0 4.930032297e-05)
(0 -0 4.960883546e-05)
(0 -0 4.991333626e-05)
(0 -0 5.020988725e-05)
(0 -0 5.049798525e-05)
(0 -0 5.078052215e-05)
(0 -0 5.10630204e-05)
(0 -0 5.135237045e-05)
(0 -0 5.165549048e-05)
(0 -0 5.197822233e-05)
(0 -0 5.23245856e-05)
(0 -0 5.269639416e-05)
(0 -0 5.309318929e-05)
(0 -0 5.351241393e-05)
(0 -0 5.394974958e-05)
(0 -0 5.439950336e-05)
(0 -0 5.485511741e-05)
(0 -0 5.53091349e-05)
(0 -0 5.575384519e-05)
(0 -0 5.618313025e-05)
(0 -0 5.658995023e-05)
(0 -0 5.697071637e-05)
(0 -0 5.73207896e-05)
(0 -0 5.763507808e-05)
(0 -0 5.791001531e-05)
(0 -0 5.814284339e-05)
(0 -0 5.833192169e-05)
(0 -0 5.847647645e-05)
(0 -0 5.857627079e-05)
(0 -0 5.863150425e-05)
(0 -0 5.864278402e-05)
(0 -0 5.861110112e-05)
(0 -0 5.853779483e-05)
(0 -0 5.842448289e-05)
(0 -0 5.827301544e-05)
(0 -0 5.808544445e-05)
(0 -0 5.786398437e-05)
(0 -0 5.761096801e-05)
(0 -0 5.732880629e-05)
(0 -0 5.701995229e-05)
(0 -0 5.668686737e-05)
(0 -0 5.633198941e-05)
(0 -0 5.595770421e-05)
(0 -0 3.755321292e-05)
(0 -0 3.76467785e-05)
(0 -0 3.776787923e-05)
(0 -0 3.791219691e-05)
(0 -0 3.807748706e-05)
(0 -0 3.826168544e-05)
(0 -0 3.84621442e-05)
(0 -0 3.86756439e-05)
(0 -0 3.889863444e-05)
(0 -0 3.912734928e-05)
(0 -0 3.935789174e-05)
(0 -0 3.958646543e-05)
(0 -0 3.980971239e-05)
(0 -0 4.002499872e-05)
(0 -0 4.023054994e-05)
(0 -0 4.042544327e-05)
(0 -0 4.060950056e-05)
(0 -0 4.07831168e-05)
(0 -0 4.094705183e-05)
(0 -0 4.110222237e-05)
(0 -0 4.124950241e-05)
(0 -0 4.138963693e-05)
(0 -0 4.152283342e-05)
(0 -0 4.164911141e-05)
(0 -0 4.176862939e-05)
(0 -0 4.188087125e-05)
(0 -0 4.198600352e-05)
(0 -0 4.208367283e-05)
(0 -0 4.217015812e-05)
(0 -0 4.224348962e-05)
(0 -0 4.230257415e-05)
(0 -0 4.234654736e-05)
(0 -0 4.237464398e-05)
(0 -0 4.23861979e-05)
(0 -0 4.238066225e-05)
(0 -0 4.235762625e-05)
(0 -0 4.231682612e-05)
(0 -0 4.225815349e-05)
(0 -0 4.218165742e-05)
(0 -0 4.208754097e-05)
(0 -0 4.197615471e-05)
(0 -0 4.184799312e-05)
(0 -0 4.170369095e-05)
(0 -0 4.154401339e-05)
(0 -0 4.136984161e-05)
(0 -0 4.118215772e-05)
(0 -0 4.098203016e-05)
(0 -0 4.07705982e-05)
(0 -0 4.05490556e-05)
(0 -0 4.031863394e-05)
(0 -0 2.947659452e-05)
(0 -0 2.954502336e-05)
(0 -0 2.963170727e-05)
(0 -0 2.973336343e-05)
(0 -0 2.984838417e-05)
(0 -0 2.997535669e-05)
(0 -0 3.011257411e-05)
(0 -0 3.025808038e-05)
(0 -0 3.040985402e-05)
(0 -0 3.05658795e-05)
(0 -0 3.072413453e-05)
(0 -0 3.088259152e-05)
(0 -0 3.103925892e-05)
(0 -0 3.11922364e-05)
(0 -0 3.133976284e-05)
(0 -0 3.148025736e-05)
(0 -0 3.161235432e-05)
(0 -0 3.17349305e-05)
(0 -0 3.184710136e-05)
(0 -0 3.194824432e-05)
(0 -0 3.203777071e-05)
(0 -0 3.211523696e-05)
(0 -0 3.218068677e-05)
(0 -0 3.223410765e-05)
(0 -0 3.227587239e-05)
(0 -0 3.23063368e-05)
(0 -0 3.232456875e-05)
(0 -0 3.233030124e-05)
(0 -0 3.232341917e-05)
(0 -0 3.23038288e-05)
(0 -0 3.227145508e-05)
(0 -0 3.222624782e-05)
(0 -0 3.216818637e-05)
(0 -0 3.209728599e-05)
(0 -0 3.201360612e-05)
(0 -0 3.191725717e-05)
(0 -0 3.180840471e-05)
(0 -0 3.168727382e-05)
(0 -0 3.155415377e-05)
(0 -0 3.140940213e-05)
(0 -0 3.125344722e-05)
(0 -0 3.108678851e-05)
(0 -0 3.090999575e-05)
(0 -0 3.072370633e-05)
(0 -0 3.052862087e-05)
(0 -0 3.032549755e-05)
(0 -0 3.011514552e-05)
(0 -0 2.989841744e-05)
(0 -0 2.967620105e-05)
(0 -0 2.94494101e-05)
(0 -0 2.287771702e-05)
(0 -0 2.293014935e-05)
(0 -0 2.299497678e-05)
(0 -0 2.306955103e-05)
(0 -0 2.315267375e-05)
(0 -0 2.324334522e-05)
(0 -0 2.334039047e-05)
(0 -0 2.344246571e-05)
(0 -0 2.354816481e-05)
(0 -0 2.365607377e-05)
(0 -0 2.376478761e-05)
(0 -0 2.387293064e-05)
(0 -0 2.39791817e-05)
(0 -0 2.408229104e-05)
(0 -0 2.418108614e-05)
(0 -0 2.427447649e-05)
(0 -0 2.436145033e-05)
(0 -0 2.444111191e-05)
(0 -0 2.45125329e-05)
(0 -0 2.457490917e-05)
(0 -0 2.462775235e-05)
(0 -0 2.467063375e-05)
(0 -0 2.470339994e-05)
(0 -0 2.472581002e-05)
(0 -0 2.473722591e-05)
(0 -0 2.473729556e-05)
(0 -0 2.472581113e-05)
(0 -0 2.470262661e-05)
(0 -0 2.466764101e-05)
(0 -0 2.462079521e-05)
(0 -0 2.456207106e-05)
(0 -0 2.449149177e-05)
(0 -0 2.440912294e-05)
(0 -0 2.431507443e-05)
(0 -0 2.420950274e-05)
(0 -0 2.409261286e-05)
(0 -0 2.396465968e-05)
(0 -0 2.382594968e-05)
(0 -0 2.367684263e-05)
(0 -0 2.351775278e-05)
(0 -0 2.334914858e-05)
(0 -0 2.317155157e-05)
(0 -0 2.298553474e-05)
(0 -0 2.279172031e-05)
(0 -0 2.259077627e-05)
(0 -0 2.238341185e-05)
(0 -0 2.217037188e-05)
(0 -0 2.195243052e-05)
(0 -0 2.173038449e-05)
(0 -0 2.15050459e-05)
(0 -0 1.739972562e-05)
(0 -0 1.744148778e-05)
(0 -0 1.749183146e-05)
(0 -0 1.754850982e-05)
(0 -0 1.76105884e-05)
(0 -0 1.767734737e-05)
(0 -0 1.774797216e-05)
(0 -0 1.782152828e-05)
(0 -0 1.789701593e-05)
(0 -0 1.797340558e-05)
(0 -0 1.804966001e-05)
(0 -0 1.812475904e-05)
(0 -0 1.819772128e-05)
(0 -0 1.826761596e-05)
(0 -0 1.833356017e-05)
(0 -0 1.839474713e-05)
(0 -0 1.845031389e-05)
(0 -0 1.849950902e-05)
(0 -0 1.854177848e-05)
(0 -0 1.857656503e-05)
(0 -0 1.860352869e-05)
(0 -0 1.862233175e-05)
(0 -0 1.863235156e-05)
(0 -0 1.863313325e-05)
(0 -0 1.862435085e-05)
(0 -0 1.860573726e-05)
(0 -0 1.857707487e-05)
(0 -0 1.853818963e-05)
(0 -0 1.848894783e-05)
(0 -0 1.842925609e-05)
(0 -0 1.835906238e-05)
(0 -0 1.82783573e-05)
(0 -0 1.818717559e-05)
(0 -0 1.808559769e-05)
(0 -0 1.797375133e-05)
(0 -0 1.785181299e-05)
(0 -0 1.772000907e-05)
(0 -0 1.757861672e-05)
(0 -0 1.742796447e-05)
(0 -0 1.726843228e-05)
(0 -0 1.710045121e-05)
(0 -0 1.692450232e-05)
(0 -0 1.674111503e-05)
(0 -0 1.65508645e-05)
(0 -0 1.635436797e-05)
(0 -0 1.61522801e-05)
(0 -0 1.594528752e-05)
(0 -0 1.573410263e-05)
(0 -0 1.551945692e-05)
(0 -0 1.530209398e-05)
(0 -0 1.279296021e-05)
(0 -0 1.282752417e-05)
(0 -0 1.286813936e-05)
(0 -0 1.291281624e-05)
(0 -0 1.296079198e-05)
(0 -0 1.301153381e-05)
(0 -0 1.306446578e-05)
(0 -0 1.311892082e-05)
(0 -0 1.317416575e-05)
(0 -0 1.32294295e-05)
(0 -0 1.328392837e-05)
(0 -0 1.333688826e-05)
(0 -0 1.338756249e-05)
(0 -0 1.343522157e-05)
(0 -0 1.347913008e-05)
(0 -0 1.351862121e-05)
(0 -0 1.355315414e-05)
(0 -0 1.358214183e-05)
(0 -0 1.360519147e-05)
(0 -0 1.362192233e-05)
(0 -0 1.363175691e-05)
(0 -0 1.363420926e-05)
(0 -0 1.362890166e-05)
(0 -0 1.361550795e-05)
(0 -0 1.359374316e-05)
(0 -0 1.356336012e-05)
(0 -0 1.352414741e-05)
(0 -0 1.347592897e-05)
(0 -0 1.341856382e-05)
(0 -0 1.335194667e-05)
(0 -0 1.327600926e-05)
(0 -0 1.319072218e-05)
(0 -0 1.309609692e-05)
(0 -0 1.299218777e-05)
(0 -0 1.287909375e-05)
(0 -0 1.27569602e-05)
(0 -0 1.262598012e-05)
(0 -0 1.248639507e-05)
(0 -0 1.233849584e-05)
(0 -0 1.21826228e-05)
(0 -0 1.201916576e-05)
(0 -0 1.184856322e-05)
(0 -0 1.167130065e-05)
(0 -0 1.14879078e-05)
(0 -0 1.129895503e-05)
(0 -0 1.110504874e-05)
(0 -0 1.090682606e-05)
(0 -0 1.070494874e-05)
(0 -0 1.050009637e-05)
(0 -0 1.029295923e-05)
(0 -0 8.879141258e-06)
(0 -0 8.908817291e-06)
(0 -0 8.942843923e-06)
(0 -0 8.979397755e-06)
(0 -0 9.017828686e-06)
(0 -0 9.057730588e-06)
(0 -0 9.098689118e-06)
(0 -0 9.140216375e-06)
(0 -0 9.18175672e-06)
(0 -0 9.222712849e-06)
(0 -0 9.262474417e-06)
(0 -0 9.30041851e-06)
(0 -0 9.33595484e-06)
(0 -0 9.368535379e-06)
(0 -0 9.397643873e-06)
(0 -0 9.422728187e-06)
(0 -0 9.443396187e-06)
(0 -0 9.459242008e-06)
(0 -0 9.469730174e-06)
(0 -0 9.474391505e-06)
(0 -0 9.472834562e-06)
(0 -0 9.464705681e-06)
(0 -0 9.449682888e-06)
(0 -0 9.427474938e-06)
(0 -0 9.397820932e-06)
(0 -0 9.360490249e-06)
(0 -0 9.315282113e-06)
(0 -0 9.26202567e-06)
(0 -0 9.200580392e-06)
(0 -0 9.130837032e-06)
(0 -0 9.052719316e-06)
(0 -0 8.96618615e-06)
(0 -0 8.871234013e-06)
(0 -0 8.76789929e-06)
(0 -0 8.656260394e-06)
(0 -0 8.536439538e-06)
(0 -0 8.408604163e-06)
(0 -0 8.272968074e-06)
(0 -0 8.129792358e-06)
(0 -0 7.979385991e-06)
(0 -0 7.82210596e-06)
(0 -0 7.658356655e-06)
(0 -0 7.488588373e-06)
(0 -0 7.31329482e-06)
(0 -0 7.133009596e-06)
(0 -0 6.948301763e-06)
(0 -0 6.759770558e-06)
(0 -0 6.568039233e-06)
(0 -0 6.373748085e-06)
(0 -0 6.177547029e-06)
(0 -0 5.528618358e-06)
(0 -0 5.554867619e-06)
(0 -0 5.584325118e-06)
(0 -0 5.615284767e-06)
(0 -0 5.647172763e-06)
(0 -0 5.679670499e-06)
(0 -0 5.712472965e-06)
(0 -0 5.745208501e-06)
(0 -0 5.777436757e-06)
(0 -0 5.808673556e-06)
(0 -0 5.838435667e-06)
(0 -0 5.866262065e-06)
(0 -0 5.89167514e-06)
(0 -0 5.914228585e-06)
(0 -0 5.933538969e-06)
(0 -0 5.94922951e-06)
(0 -0 5.96081372e-06)
(0 -0 5.96786507e-06)
(0 -0 5.970004808e-06)
(0 -0 5.966878519e-06)
(0 -0 5.958153827e-06)
(0 -0 5.943520685e-06)
(0 -0 5.922691676e-06)
(0 -0 5.895403059e-06)
(0 -0 5.861415586e-06)
(0 -0 5.820514941e-06)
(0 -0 5.772511853e-06)
(0 -0 5.717242328e-06)
(0 -0 5.654568385e-06)
(0 -0 5.584379445e-06)
(0 -0 5.506594404e-06)
(0 -0 5.421164187e-06)
(0 -0 5.328074476e-06)
(0 -0 5.227348308e-06)
(0 -0 5.119048355e-06)
(0 -0 5.00327883e-06)
(0 -0 4.880187072e-06)
(0 -0 4.749964933e-06)
(0 -0 4.612849991e-06)
(0 -0 4.469126463e-06)
(0 -0 4.319125573e-06)
(0 -0 4.163225183e-06)
(0 -0 4.001848536e-06)
(0 -0 3.835462029e-06)
(0 -0 3.664571848e-06)
(0 -0 3.489719494e-06)
(0 -0 3.311476323e-06)
(0 -0 3.130437232e-06)
(0 -0 2.947213491e-06)
(0 -0 2.762424933e-06)
(0 -0 2.641058806e-06)
(0 -0 2.665259331e-06)
(0 -0 2.691930782e-06)
(0 -0 2.719399602e-06)
(0 -0 2.747135313e-06)
(0 -0 2.774882398e-06)
(0 -0 2.802412993e-06)
(0 -0 2.829450137e-06)
(0 -0 2.85564128e-06)
(0 -0 2.880585866e-06)
(0 -0 2.903870235e-06)
(0 -0 2.925130887e-06)
(0 -0 2.944026502e-06)
(0 -0 2.960198034e-06)
(0 -0 2.973252178e-06)
(0 -0 2.982826237e-06)
(0 -0 2.988571234e-06)
(0 -0 2.990149008e-06)
(0 -0 2.987237721e-06)
(0 -0 2.979531733e-06)
(0 -0 2.966740658e-06)
(0 -0 2.948590041e-06)
(0 -0 2.924822592e-06)
(0 -0 2.895199621e-06)
(0 -0 2.85950223e-06)
(0 -0 2.817532026e-06)
(0 -0 2.769111492e-06)
(0 -0 2.71408446e-06)
(0 -0 2.652317092e-06)
(0 -0 2.583699577e-06)
(0 -0 2.508148501e-06)
(0 -0 2.425609694e-06)
(0 -0 2.336061202e-06)
(0 -0 2.239516066e-06)
(0 -0 2.136024754e-06)
(0 -0 2.025677226e-06)
(0 -0 1.908604758e-06)
(0 -0 1.784981615e-06)
(0 -0 1.655026572e-06)
(0 -0 1.519004128e-06)
(0 -0 1.377225175e-06)
(0 -0 1.230046906e-06)
(0 -0 1.077871836e-06)
(0 -0 9.211458084e-07)
(0 -0 7.603547919e-07)
(0 -0 5.960203152e-07)
(0 -0 4.286936811e-07)
(0 -0 2.589492997e-07)
(0 -0 8.737727017e-08)
(0 -0 -8.542477789e-08)
(0 -0 1.483857729e-07)
(0 -0 1.713193886e-07)
(0 -0 1.962666504e-07)
(0 -0 2.215594239e-07)
(0 -0 2.466932889e-07)
(0 -0 2.714527533e-07)
(0 -0 2.956574988e-07)
(0 -0 3.19084365e-07)
(0 -0 3.414527747e-07)
(0 -0 3.624359122e-07)
(0 -0 3.817026631e-07)
(0 -0 3.989163782e-07)
(0 -0 4.137686634e-07)
(0 -0 4.259618456e-07)
(0 -0 4.351983669e-07)
(0 -0 4.411791323e-07)
(0 -0 4.436077713e-07)
(0 -0 4.421951956e-07)
(0 -0 4.366625443e-07)
(0 -0 4.267425241e-07)
(0 -0 4.1217933e-07)
(0 -0 3.927289832e-07)
(0 -0 3.681605464e-07)
(0 -0 3.382577471e-07)
(0 -0 3.028203917e-07)
(0 -0 2.616652424e-07)
(0 -0 2.146265126e-07)
(0 -0 1.615564453e-07)
(0 -0 1.023264488e-07)
(0 -0 3.682902404e-08)
(0 -0 -3.501958018e-08)
(0 -0 -1.132762796e-07)
(0 -0 -1.979680099e-07)
(0 -0 -2.890888147e-07)
(0 -0 -3.865972738e-07)
(0 -0 -4.904142203e-07)
(0 -0 -6.004206512e-07)
(0 -0 -7.164557802e-07)
(0 -0 -8.383152492e-07)
(0 -0 -9.657495964e-07)
(0 -0 -1.09846319e-06)
(0 -0 -1.236113931e-06)
(0 -0 -1.378313986e-06)
(0 -0 -1.524631689e-06)
(0 -0 -1.674594717e-06)
(0 -0 -1.827694681e-06)
(0 -0 -1.983393193e-06)
(0 -0 -2.141129081e-06)
(0 -0 -2.300326452e-06)
(0 -0 -2.460403475e-06)
(0 -0 -1.99415184e-06)
(0 -0 -1.972354334e-06)
(0 -0 -1.948871698e-06)
(0 -0 -1.925307106e-06)
(0 -0 -1.902136584e-06)
(0 -0 -1.879554699e-06)
(0 -0 -1.857699569e-06)
(0 -0 -1.836755725e-06)
(0 -0 -1.81696571e-06)
(0 -0 -1.798616287e-06)
(0 -0 -1.781998144e-06)
(0 -0 -1.767385274e-06)
(0 -0 -1.755036136e-06)
(0 -0 -1.745203378e-06)
(0 -0 -1.738140766e-06)
(0 -0 -1.73410437e-06)
(0 -0 -1.733349606e-06)
(0 -0 -1.736127278e-06)
(0 -0 -1.7426809e-06)
(0 -0 -1.753245602e-06)
(0 -0 -1.768048072e-06)
(0 -0 -1.787306268e-06)
(0 -0 -1.811228193e-06)
(0 -0 -1.840010126e-06)
(0 -0 -1.873835068e-06)
(0 -0 -1.912871797e-06)
(0 -0 -1.957274368e-06)
(0 -0 -2.007181492e-06)
(0 -0 -2.062715292e-06)
(0 -0 -2.123979183e-06)
(0 -0 -2.191055031e-06)
(0 -0 -2.263999927e-06)
(0 -0 -2.342842942e-06)
(0 -0 -2.427582094e-06)
(0 -0 -2.51818161e-06)
(0 -0 -2.614569429e-06)
(0 -0 -2.716634877e-06)
(0 -0 -2.824226475e-06)
(0 -0 -2.937149886e-06)
(0 -0 -3.05516605e-06)
(0 -0 -3.177989719e-06)
(0 -0 -3.305288744e-06)
(0 -0 -3.436684561e-06)
(0 -0 -3.571754092e-06)
(0 -0 -3.710033056e-06)
(0 -0 -3.851020695e-06)
(0 -0 -3.994186065e-06)
(0 -0 -4.138975816e-06)
(0 -0 -4.284823134e-06)
(0 -0 -4.431157567e-06)
(0 -0 -3.837465342e-06)
(0 -0 -3.816116073e-06)
(0 -0 -3.793273545e-06)
(0 -0 -3.770516556e-06)
(0 -0 -3.748304134e-06)
(0 -0 -3.726815276e-06)
(0 -0 -3.706165829e-06)
(0 -0 -3.686504074e-06)
(0 -0 -3.668038321e-06)
(0 -0 -3.651017586e-06)
(0 -0 -3.635695616e-06)
(0 -0 -3.622309794e-06)
(0 -0 -3.611081174e-06)
(0 -0 -3.602224086e-06)
(0 -0 -3.595954167e-06)
(0 -0 -3.592490732e-06)
(0 -0 -3.59205443e-06)
(0 -0 -3.594863273e-06)
(0 -0 -3.601129836e-06)
(0 -0 -3.61106038e-06)
(0 -0 -3.624854952e-06)
(0 -0 -3.642707127e-06)
(0 -0 -3.664802747e-06)
(0 -0 -3.691318088e-06)
(0 -0 -3.722418289e-06)
(0 -0 -3.758256446e-06)
(0 -0 -3.79897317e-06)
(0 -0 -3.844695952e-06)
(0 -0 -3.89553783e-06)
(0 -0 -3.951595163e-06)
(0 -0 -4.012944699e-06)
(0 -0 -4.079640274e-06)
(0 -0 -4.151709468e-06)
(0 -0 -4.22915043e-06)
(0 -0 -4.311928987e-06)
(0 -0 -4.399976002e-06)
(0 -0 -4.49318489e-06)
(0 -0 -4.591409168e-06)
(0 -0 -4.694460052e-06)
(0 -0 -4.802104244e-06)
(0 -0 -4.914062165e-06)
(0 -0 -5.030006962e-06)
(0 -0 -5.149564746e-06)
(0 -0 -5.272316386e-06)
(0 -0 -5.397800951e-06)
(0 -0 -5.52552071e-06)
(0 -0 -5.654947802e-06)
(0 -0 -5.785532712e-06)
(0 -0 -5.916714332e-06)
(0 -0 -6.04793121e-06)
(0 -0 -5.417962664e-06)
(0 -0 -5.396586899e-06)
(0 -0 -5.37375857e-06)
(0 -0 -5.351081364e-06)
(0 -0 -5.32901176e-06)
(0 -0 -5.307719183e-06)
(0 -0 -5.287304119e-06)
(0 -0 -5.2678928e-06)
(0 -0 -5.249667987e-06)
(0 -0 -5.232850951e-06)
(0 -0 -5.217666616e-06)
(0 -0 -5.204322755e-06)
(0 -0 -5.193010082e-06)
(0 -0 -5.183912302e-06)
(0 -0 -5.17721471e-06)
(0 -0 -5.173106814e-06)
(0 -0 -5.171780154e-06)
(0 -0 -5.173424495e-06)
(0 -0 -5.178225191e-06)
(0 -0 -5.186362496e-06)
(0 -0 -5.198011829e-06)
(0 -0 -5.213343569e-06)
(0 -0 -5.232521809e-06)
(0 -0 -5.255702546e-06)
(0 -0 -5.283032168e-06)
(0 -0 -5.314646645e-06)
(0 -0 -5.350671127e-06)
(0 -0 -5.391219324e-06)
(0 -0 -5.436392153e-06)
(0 -0 -5.486275509e-06)
(0 -0 -5.540937323e-06)
(0 -0 -5.600424215e-06)
(0 -0 -5.664758052e-06)
(0 -0 -5.73393265e-06)
(0 -0 -5.807910784e-06)
(0 -0 -5.886621478e-06)
(0 -0 -5.969957393e-06)
(0 -0 -6.057772132e-06)
(0 -0 -6.14987747e-06)
(0 -0 -6.246040799e-06)
(0 -0 -6.345983162e-06)
(0 -0 -6.449378132e-06)
(0 -0 -6.555851885e-06)
(0 -0 -6.664984838e-06)
(0 -0 -6.776315113e-06)
(0 -0 -6.889343809e-06)
(0 -0 -7.003542136e-06)
(0 -0 -7.118360751e-06)
(0 -0 -7.233241458e-06)
(0 -0 -7.347630718e-06)
(0 -0 -6.754037429e-06)
(0 -0 -6.732559632e-06)
(0 -0 -6.709604509e-06)
(0 -0 -6.686789285e-06)
(0 -0 -6.664567353e-06)
(0 -0 -6.643100143e-06)
(0 -0 -6.622476198e-06)
(0 -0 -6.60280581e-06)
(0 -0 -6.584252994e-06)
(0 -0 -6.567018697e-06)
(0 -0 -6.551306276e-06)
(0 -0 -6.537300779e-06)
(0 -0 -6.525169184e-06)
(0 -0 -6.515070648e-06)
(0 -0 -6.507165444e-06)
(0 -0 -6.501617998e-06)
(0 -0 -6.498594974e-06)
(0 -0 -6.498261625e-06)
(0 -0 -6.500779238e-06)
(0 -0 -6.506304569e-06)
(0 -0 -6.514990223e-06)
(0 -0 -6.526984545e-06)
(0 -0 -6.542430423e-06)
(0 -0 -6.561463543e-06)
(0 -0 -6.584210946e-06)
(0 -0 -6.610790281e-06)
(0 -0 -6.641309464e-06)
(0 -0 -6.675866115e-06)
(0 -0 -6.714546278e-06)
(0 -0 -6.757422243e-06)
(0 -0 -6.804549601e-06)
(0 -0 -6.855963833e-06)
(0 -0 -6.911676799e-06)
(0 -0 -6.97167341e-06)
(0 -0 -7.035908608e-06)
(0 -0 -7.104304575e-06)
(0 -0 -7.176747991e-06)
(0 -0 -7.253087145e-06)
(0 -0 -7.33312894e-06)
(0 -0 -7.416636095e-06)
(0 -0 -7.503324984e-06)
(0 -0 -7.592864492e-06)
(0 -0 -7.684876072e-06)
(0 -0 -7.778935311e-06)
(0 -0 -7.874575391e-06)
(0 -0 -7.97129256e-06)
(0 -0 -8.068553694e-06)
(0 -0 -8.165806587e-06)
(0 -0 -8.262493594e-06)
(0 -0 -8.358067092e-06)
(0 -0 -7.864996538e-06)
(0 -0 -7.843241326e-06)
(0 -0 -7.8199346e-06)
(0 -0 -7.796710241e-06)
(0 -0 -7.774020548e-06)
(0 -0 -7.752019956e-06)
(0 -0 -7.730786428e-06)
(0 -0 -7.710417252e-06)
(0 -0 -7.691062008e-06)
(0 -0 -7.672906081e-06)
(0 -0 -7.656135741e-06)
(0 -0 -7.640917183e-06)
(0 -0 -7.627396986e-06)
(0 -0 -7.615712895e-06)
(0 -0 -7.606003197e-06)
(0 -0 -7.598410065e-06)
(0 -0 -7.593077756e-06)
(0 -0 -7.590148995e-06)
(0 -0 -7.589762488e-06)
(0 -0 -7.592052455e-06)
(0 -0 -7.597149145e-06)
(0 -0 -7.605178818e-06)
(0 -0 -7.616262637e-06)
(0 -0 -7.630514974e-06)
(0 -0 -7.648042006e-06)
(0 -0 -7.668941004e-06)
(0 -0 -7.693300063e-06)
(0 -0 -7.721197668e-06)
(0 -0 -7.752701526e-06)
(0 -0 -7.787866445e-06)
(0 -0 -7.826731353e-06)
(0 -0 -7.869315831e-06)
(0 -0 -7.915616596e-06)
(0 -0 -7.965604213e-06)
(0 -0 -8.019220082e-06)
(0 -0 -8.076373551e-06)
(0 -0 -8.136939017e-06)
(0 -0 -8.200752942e-06)
(0 -0 -8.267610806e-06)
(0 -0 -8.337264199e-06)
(0 -0 -8.409418548e-06)
(0 -0 -8.483731998e-06)
(0 -0 -8.559815669e-06)
(0 -0 -8.637235371e-06)
(0 -0 -8.715515162e-06)
(0 -0 -8.794142766e-06)
(0 -0 -8.872577921e-06)
(0 -0 -8.950264108e-06)
(0 -0 -9.026642101e-06)
(0 -0 -9.101165793e-06)
(0 -0 -8.765960979e-06)
(0 -0 -8.743804257e-06)
(0 -0 -8.719980696e-06)
(0 -0 -8.696143869e-06)
(0 -0 -8.672747305e-06)
(0 -0 -8.649940022e-06)
(0 -0 -8.627791046e-06)
(0 -0 -8.606387114e-06)
(0 -0 -8.58586663e-06)
(0 -0 -8.566402894e-06)
(0 -0 -8.548168358e-06)
(0 -0 -8.531313359e-06)
(0 -0 -8.515966908e-06)
(0 -0 -8.502248014e-06)
(0 -0 -8.490275453e-06)
(0 -0 -8.48017129e-06)
(0 -0 -8.472059147e-06)
(0 -0 -8.466060596e-06)
(0 -0 -8.462292694e-06)
(0 -0 -8.460867586e-06)
(0 -0 -8.461893147e-06)
(0 -0 -8.465473089e-06)
(0 -0 -8.471705924e-06)
(0 -0 -8.480683275e-06)
(0 -0 -8.492488471e-06)
(0 -0 -8.50719587e-06)
(0 -0 -8.524870706e-06)
(0 -0 -8.545568792e-06)
(0 -0 -8.569335453e-06)
(0 -0 -8.596203423e-06)
(0 -0 -8.626189856e-06)
(0 -0 -8.65929285e-06)
(0 -0 -8.695487957e-06)
(0 -0 -8.734724929e-06)
(0 -0 -8.776924713e-06)
(0 -0 -8.821976521e-06)
(0 -0 -8.869734831e-06)
(0 -0 -8.920016347e-06)
(0 -0 -8.97259697e-06)
(0 -0 -9.02720899e-06)
(0 -0 -9.083538909e-06)
(0 -0 -9.141226575e-06)
(0 -0 -9.199865842e-06)
(0 -0 -9.259006954e-06)
(0 -0 -9.318160038e-06)
(0 -0 -9.376799991e-06)
(0 -0 -9.434376657e-06)
(0 -0 -9.490323055e-06)
(0 -0 -9.544066416e-06)
(0 -0 -9.595082059e-06)
(0 -0 -9.468977647e-06)
(0 -0 -9.446338086e-06)
(0 -0 -9.421887373e-06)
(0 -0 -9.397300042e-06)
(0 -0 -9.373032337e-06)
(0 -0 -9.349229053e-06)
(0 -0 -9.325951559e-06)
(0 -0 -9.303277789e-06)
(0 -0 -9.281337211e-06)
(0 -0 -9.260293508e-06)
(0 -0 -9.24030778e-06)
(0 -0 -9.221516838e-06)
(0 -0 -9.204034319e-06)
(0 -0 -9.187962499e-06)
(0 -0 -9.173402465e-06)
(0 -0 -9.160457789e-06)
(0 -0 -9.149232784e-06)
(0 -0 -9.139828847e-06)
(0 -0 -9.132341968e-06)
(0 -0 -9.126862395e-06)
(0 -0 -9.123475407e-06)
(0 -0 -9.122261531e-06)
(0 -0 -9.123295519e-06)
(0 -0 -9.126644618e-06)
(0 -0 -9.132367127e-06)
(0 -0 -9.140511782e-06)
(0 -0 -9.151117717e-06)
(0 -0 -9.164214267e-06)
(0 -0 -9.179819943e-06)
(0 -0 -9.19794033e-06)
(0 -0 -9.218565119e-06)
(0 -0 -9.24166468e-06)
(0 -0 -9.267186597e-06)
(0 -0 -9.295052385e-06)
(0 -0 -9.32515449e-06)
(0 -0 -9.3573534e-06)
(0 -0 -9.39147466e-06)
(0 -0 -9.42730574e-06)
(0 -0 -9.464592996e-06)
(0 -0 -9.503039105e-06)
(0 -0 -9.542301406e-06)
(0 -0 -9.58199179e-06)
(0 -0 -9.621678323e-06)
(0 -0 -9.660889854e-06)
(0 -0 -9.699117599e-06)
(0 -0 -9.735826646e-06)
(0 -0 -9.770453759e-06)
(0 -0 -9.802395712e-06)
(0 -0 -9.831072519e-06)
(0 -0 -9.856072379e-06)
(0 -0 -9.983988155e-06)
(0 -0 -9.960817241e-06)
(0 -0 -9.935672146e-06)
(0 -0 -9.910248575e-06)
(0 -0 -9.885006439e-06)
(0 -0 -9.860087262e-06)
(0 -0 -9.83554582e-06)
(0 -0 -9.811452593e-06)
(0 -0 -9.787929759e-06)
(0 -0 -9.765133193e-06)
(0 -0 -9.743214468e-06)
(0 -0 -9.722298621e-06)
(0 -0 -9.702485562e-06)
(0 -0 -9.683862393e-06)
(0 -0 -9.666513934e-06)
(0 -0 -9.650526518e-06)
(0 -0 -9.635986179e-06)
(0 -0 -9.622974859e-06)
(0 -0 -9.61156787e-06)
(0 -0 -9.601833628e-06)
(0 -0 -9.593834536e-06)
(0 -0 -9.587627252e-06)
(0 -0 -9.583261621e-06)
(0 -0 -9.580778858e-06)
(0 -0 -9.580210066e-06)
(0 -0 -9.581575655e-06)
(0 -0 -9.584885375e-06)
(0 -0 -9.590138141e-06)
(0 -0 -9.597321015e-06)
(0 -0 -9.606407099e-06)
(0 -0 -9.617352592e-06)
(0 -0 -9.630093391e-06)
(0 -0 -9.644541613e-06)
(0 -0 -9.660582318e-06)
(0 -0 -9.678070493e-06)
(0 -0 -9.696828227e-06)
(0 -0 -9.716641757e-06)
(0 -0 -9.73725824e-06)
(0 -0 -9.758382619e-06)
(0 -0 -9.779675269e-06)
(0 -0 -9.800751282e-06)
(0 -0 -9.821181592e-06)
(0 -0 -9.840497831e-06)
(0 -0 -9.858198594e-06)
(0 -0 -9.873753446e-06)
(0 -0 -9.886640254e-06)
(0 -0 -9.896247526e-06)
(0 -0 -9.90201592e-06)
(0 -0 -9.903567538e-06)
(0 -0 -9.900047831e-06)
(0 -0 -1.031951761e-05)