/*--------------------------------*- C++ -*----------------------------------*\
| =========                 |                                                 |
| \\      /  F ield         | foam-extend: Open Source CFD                    |
|  \\    /   O peration     | Version:     4.1                                |
|   \\  /    A nd           | Web:         http://www.foam-extend.org         |
|    \\/     M anipulation  |                                                 |
\*---------------------------------------------------------------------------*/
FoamFile
{
    version     2.0;
    format      ascii;
    class       volScalarField;
    location    "20000";
    object      p;
}
// * * * * * * * * * * * * * * * * * * * * * * * * * * * * * * * * * * * * * //

dimensions      [0 2 -2 0 0 0 0];

internalField   nonuniform List<scalar> 
15920
(
1.770312152e-08
1.487750597e-08
1.268432963e-08
1.156325697e-08
1.076227487e-08
9.935479543e-09
9.130348674e-09
8.424859228e-09
7.822384478e-09
7.301207367e-09
6.850260006e-09
6.466046664e-09
6.143489345e-09
5.874476535e-09
5.649966014e-09
5.461320959e-09
5.30059356e-09
5.160599792e-09
5.035052386e-09
4.918648785e-09
4.807055328e-09
4.696821632e-09
4.58526861e-09
4.470370659e-09
4.350640338e-09
4.225019118e-09
4.092793802e-09
3.953542005e-09
3.806992974e-09
3.6529925e-09
3.491386734e-09
3.322415169e-09
3.14609348e-09
2.962426832e-09
2.771499763e-09
2.573438601e-09
2.368379136e-09
2.156471594e-09
1.937892469e-09
1.712793807e-09
1.481337933e-09
1.243729675e-09
1.000197678e-09
7.509884645e-10
4.963757637e-10
2.366658656e-10
-2.780204785e-11
-2.966554688e-10
-5.694873262e-10
-8.458552378e-10
1.240645736e-08
1.205526541e-08
1.148592579e-08
1.0955165e-08
1.044117428e-08
9.86316721e-09
9.246745656e-09
8.647378823e-09
8.090892277e-09
7.583431842e-09
7.128792581e-09
6.730402695e-09
6.387892803e-09
6.096593702e-09
5.849460757e-09
5.638872464e-09
5.457432966e-09
5.298274648e-09
5.155263521e-09
5.023136381e-09
4.89752758e-09
4.774909906e-09
4.652497928e-09
4.528141687e-09
4.400221288e-09
4.267528391e-09
4.129142587e-09
3.984399031e-09
3.833023031e-09
3.675038283e-09
3.510478792e-09
3.33864957e-09
3.15958585e-09
2.973481839e-09
2.780425671e-09
2.580471346e-09
2.373672381e-09
2.160230396e-09
1.940330359e-09
1.713857404e-09
1.481067773e-09
1.242267102e-09
9.976634825e-10
7.474640396e-10
4.919308758e-10
2.31370882e-10
-3.387729674e-11
-3.034429258e-10
-5.76919623e-10
-8.538645003e-10
1.18871146e-08
1.172362501e-08
1.128086892e-08
1.072006166e-08
1.0178328e-08
9.658741054e-09
9.141774458e-09
8.63888484e-09
8.167333827e-09
7.73360784e-09
7.338111758e-09
6.98087697e-09
6.661404284e-09
6.377502669e-09
6.125642519e-09
5.901722104e-09
5.701491807e-09
5.520699317e-09
5.35521624e-09
5.201187405e-09
5.055143703e-09
4.914054683e-09
4.775336479e-09
4.636833137e-09
4.496780479e-09
4.353774835e-09
4.206730514e-09
4.054840227e-09
3.897547586e-09
3.734441718e-09
3.565126465e-09
3.389204699e-09
3.206569106e-09
3.017221484e-09
2.821128927e-09
2.618263157e-09
2.408707983e-09
2.192453769e-09
1.97041683e-09
1.741350444e-09
1.505694662e-09
1.263895719e-09
1.01618709e-09
7.627879186e-10
5.039718588e-10
2.40054313e-10
-2.861678996e-11
-3.016602313e-10
-5.786586545e-10
-8.591573771e-10
1.090045213e-08
1.07574398e-08
1.047304177e-08
1.011215634e-08
9.73506294e-09
9.353432251e-09
8.961055889e-09
8.564909701e-09
8.179538024e-09
7.814260874e-09
7.472361784e-09
7.155182726e-09
6.863542585e-09
6.59719259e-09
6.354642626e-09
6.133560438e-09
5.93117871e-09
5.744531814e-09
5.570605431e-09
5.406472727e-09
5.249407296e-09
5.096952454e-09
4.946950631e-09
4.797547191e-09
4.647179292e-09
4.494555791e-09
4.338626809e-09
4.178548899e-09
4.013655196e-09
3.843422183e-09
3.667439219e-09
3.485380301e-09
3.297014188e-09
3.102196224e-09
2.900824988e-09
2.692866978e-09
2.478371084e-09
2.257150723e-09
2.028185018e-09
1.793326612e-09
1.552428826e-09
1.305285419e-09
1.052047543e-09
7.929987375e-10
5.284308436e-10
2.586504795e-10
-1.599696282e-11
-2.95120285e-10
-5.782864611e-10
-8.650244948e-10
1.027167238e-08
1.0200747e-08
1.002889128e-08
9.777360954e-09
9.484337954e-09
9.171383098e-09
8.845258718e-09
8.5125486e-09
8.182882924e-09
7.86417824e-09
7.560658605e-09
7.274381296e-09
7.006512256e-09
6.7573715e-09
6.526282537e-09
6.311780092e-09
6.111944843e-09
5.924636663e-09
5.747627253e-09
5.578699099e-09
5.415729953e-09
5.256752809e-09
5.099988496e-09
4.943858333e-09
4.786984353e-09
4.628181298e-09
4.466442857e-09
4.300924632e-09
4.130927235e-09
3.955874994e-09
3.775290711e-09
3.588780272e-09
3.396096547e-09
3.197018538e-09
2.991345909e-09
2.778768277e-09
2.559131923e-09
2.332473713e-09
2.098984012e-09
1.859107998e-09
1.612768914e-09
1.359884465e-09
1.100620375e-09
8.35257956e-10
5.640913916e-10
2.874344918e-10
5.646714652e-12
-2.808619279e-10
-5.716369063e-10
-8.661834433e-10
9.794991801e-09
9.744776811e-09
9.619149748e-09
9.428150419e-09
9.198112016e-09
8.947087655e-09
8.682437191e-09
8.409011289e-09
8.133152419e-09
7.861077355e-09
7.597037964e-09
7.343485173e-09
7.101861719e-09
6.872893452e-09
6.656572266e-09
6.452240602e-09
6.258789936e-09
6.074837383e-09
5.898840459e-09
5.729180949e-09
5.56423802e-09
5.402447458e-09
5.242342064e-09
5.082575341e-09
4.921933323e-09
4.759338233e-09
4.593846309e-09
4.424640992e-09
4.25102606e-09
4.072411905e-09
3.888294106e-09
3.698076638e-09
3.501620979e-09
3.298549099e-09
3.088559685e-09
2.871611763e-09
2.647615798e-09
2.416542533e-09
2.178406221e-09
1.933240908e-09
1.68110506e-09
1.422090036e-09
1.15636902e-09
8.841862807e-10
6.058293042e-10
3.216263174e-10
3.195475152e-11
-2.627567257e-10
-5.620316268e-10
-8.653490606e-10
9.422923151e-09
9.385057789e-09
9.291444375e-09
9.147335985e-09
8.96899259e-09
8.768650067e-09
8.552551269e-09
8.32520865e-09
8.091780742e-09
7.857385332e-09
7.625931399e-09
7.399975174e-09
7.1811528e-09
6.970460077e-09
6.768302089e-09
6.574536287e-09
6.388589575e-09
6.209590998e-09
6.036474471e-09
5.868055179e-09
5.70309344e-09
5.540348138e-09
5.378616801e-09
5.216762461e-09
5.05373011e-09
4.88855556e-09
4.720368459e-09
4.548388568e-09
4.371921108e-09
4.190361066e-09
4.003179169e-09
3.810071654e-09
3.610415867e-09
3.403931758e-09
3.190430068e-09
2.969747474e-09
2.741712459e-09
2.506205317e-09
2.26317908e-09
2.012658441e-09
1.754730725e-09
1.489512034e-09
1.217161722e-09
9.37903633e-10
6.520243036e-10
3.598653425e-10
6.182184854e-11
-2.416571373e-10
-5.500702206e-10
-8.628667763e-10
9.131014487e-09
9.102020639e-09
9.030112926e-09
8.917895301e-09
8.77592708e-09
8.612781243e-09
8.433628091e-09
8.24253005e-09
8.043709032e-09
7.841225885e-09
7.63835841e-09
7.437459561e-09
7.240157054e-09
7.047531187e-09
6.860175036e-09
6.678231516e-09
6.501468524e-09
6.329372989e-09
6.161232479e-09
5.996198582e-09
5.833339156e-09
5.671682881e-09
5.510255008e-09
5.348103651e-09
5.184318354e-09
5.018043603e-09
4.848484317e-09
4.674914218e-09
4.496673072e-09
4.313158669e-09
4.123836536e-09
3.92823955e-09
3.725896081e-09
3.516473343e-09
3.299708642e-09
3.07536225e-09
2.843237561e-09
2.603204148e-09
2.355200817e-09
2.099228115e-09
1.835339364e-09
1.563634851e-09
1.284271145e-09
9.974726718e-10
7.03531898e-10
4.028039422e-10
9.570377579e-11
-2.17294468e-10
-5.356592363e-10
-8.588049596e-10
8.900599067e-09
8.87761297e-09
8.820507624e-09
8.730721341e-09
8.615684676e-09
8.481525843e-09
8.332156173e-09
8.170822627e-09
8.000870277e-09
7.825515773e-09
7.647464965e-09
7.468797497e-09
7.291047669e-09
7.11530044e-09
6.942238876e-09
6.772176697e-09
6.605108567e-09
6.440773971e-09
6.278717853e-09
6.118341426e-09
5.958945207e-09
5.799766429e-09
5.64001054e-09
5.478876324e-09
5.315569601e-09
5.149334135e-09
4.979443366e-09
4.805207604e-09
4.625983908e-09
4.441178916e-09
4.250249871e-09
4.052707232e-09
3.848112468e-09
3.636081249e-09
3.416287349e-09
3.188458305e-09
2.952376886e-09
2.707884076e-09
2.454881637e-09
2.193333009e-09
1.923263976e-09
1.644764314e-09
1.357991063e-09
1.063172155e-09
7.606072072e-10
4.506657829e-10
1.337854266e-10
-1.895301702e-10
-5.187138968e-10
-8.531392403e-10
8.718824521e-09
8.700174753e-09
8.653846291e-09
8.580688722e-09
8.486142128e-09
8.374611653e-09
8.24893517e-09
8.111615777e-09
7.96531706e-09
7.812629826e-09
7.655784105e-09
7.496564881e-09
7.336351221e-09
7.176166285e-09
7.016705901e-09
6.858362278e-09
6.701258445e-09
6.545291996e-09
6.390179297e-09
6.235495026e-09
6.080707099e-09
5.925208554e-09
5.768340716e-09
5.609422237e-09
5.447765794e-09
5.282675794e-09
5.113477372e-09
4.939521691e-09
4.76018864e-09
4.574892092e-09
4.383083952e-09
4.184258183e-09
3.977951714e-09
3.763745615e-09
3.541275211e-09
3.31023203e-09
3.070362007e-09
2.821468515e-09
2.563418196e-09
2.296145397e-09
2.019654941e-09
1.734024254e-09
1.439405582e-09
1.136028577e-09
8.242019854e-10
5.04313438e-10
1.768277013e-10
-1.577160477e-10
-4.98707964e-10
-8.454724549e-10
8.57648825e-09
8.561098256e-09
8.522862921e-09
8.462282792e-09
8.383470215e-09
8.289667645e-09
8.182936495e-09
8.065184563e-09
7.938517953e-09
7.805012585e-09
7.66648127e-09
7.524415093e-09
7.380008025e-09
7.234180894e-09
7.087592786e-09
6.940654718e-09
6.793552773e-09
6.646277975e-09
6.498657769e-09
6.350386734e-09
6.201048638e-09
6.050152037e-09
5.897147197e-09
5.741435055e-09
5.58239423e-09
5.419392388e-09
5.251797976e-09
5.078988035e-09
4.90035412e-09
4.715308738e-09
4.523291232e-09
4.323772879e-09
4.116261281e-09
3.900305185e-09
3.675500806e-09
3.441496251e-09
3.197994903e-09
2.944760614e-09
2.681623954e-09
2.408487652e-09
2.125331012e-09
1.832213821e-09
1.529279996e-09
1.216760753e-09
8.949765345e-10
5.64337095e-10
2.253397519e-10
-1.214339034e-10
-4.753227382e-10
-8.355922522e-10
8.4666806e-09
8.453799887e-09
8.421793887e-09
8.370953254e-09
8.304477574e-09
8.224811169e-09
8.133453977e-09
8.03183927e-09
7.921612131e-09
7.804423617e-09
7.681736636e-09
7.554780415e-09
7.424566684e-09
7.291899331e-09
7.157374474e-09
7.021385878e-09
6.884139531e-09
6.745675338e-09
6.605882665e-09
6.464533986e-09
6.321301409e-09
6.175762757e-09
6.02743149e-09
5.875775456e-09
5.720226692e-09
5.560192923e-09
5.395067972e-09
5.224241013e-09
5.047104371e-09
4.863060553e-09
4.671528868e-09
4.471951736e-09
4.263800861e-09
4.046583492e-09
3.819849085e-09
3.583196191e-09
3.336279129e-09
3.078814924e-09
2.810590673e-09
2.531470765e-09
2.241403556e-09
1.940427363e-09
1.628675627e-09
1.3063809e-09
9.738772535e-10
6.316007055e-10
2.800875117e-10
-8.002968764e-11
-4.480277794e-10
-8.231010088e-10
8.384084212e-09
8.373182278e-09
8.34608933e-09
8.302965804e-09
8.246356051e-09
8.178137401e-09
8.099403103e-09
8.011221968e-09
7.914872633e-09
7.811664449e-09
7.702772481e-09
7.589199441e-09
7.471786659e-09
7.35121676e-09
7.228007946e-09
7.102515749e-09
6.974931641e-09
6.845314535e-09
6.71359354e-09
6.579575995e-09
6.442973407e-09
6.303416928e-09
6.160468981e-09
6.013636678e-09
5.862382588e-09
5.706135318e-09
5.544299393e-09
5.376264127e-09
5.201411502e-09
5.019123493e-09
4.82878928e-09
4.629812535e-09
4.421618868e-09
4.203663564e-09
3.975439799e-09
3.736487337e-09
3.486401437e-09
3.224842012e-09
2.951543102e-09
2.666322355e-09
2.369090049e-09
2.059857269e-09
1.738742937e-09
1.405979266e-09
1.061915233e-09
7.070176009e-10
3.41869209e-10
-3.283560656e-11
-4.162984085e-10
-8.076266536e-10
8.324511124e-09
8.315205417e-09
8.292072988e-09
8.255191249e-09
8.206619146e-09
8.14782234e-09
8.079600165e-09
8.002746709e-09
7.918253079e-09
7.827154331e-09
7.730388518e-09
7.628764425e-09
7.522969788e-09
7.413570884e-09
7.300997333e-09
7.185559299e-09
7.067430452e-09
6.946650461e-09
6.823152638e-09
6.696767755e-09
6.567233961e-09
6.434208657e-09
6.297278459e-09
6.155969564e-09
6.009757693e-09
5.858077193e-09
5.700329489e-09
5.535891047e-09
5.364120984e-09
5.184368596e-09
4.995981042e-09
4.798311369e-09
4.590727002e-09
4.372618821e-09
4.143410948e-09
3.90257126e-09
3.649622539e-09
3.384154155e-09
3.105834141e-09
2.814421377e-09
2.509777383e-09
2.191877268e-09
1.860819287e-09
1.51683246e-09
1.160281623e-09
7.9166936e-10
4.116343554e-10
2.09459481e-11
-3.795051478e-10
-7.887196983e-10
8.284588241e-09
8.276599652e-09
8.256726987e-09
8.224994808e-09
8.183094371e-09
8.132186652e-09
8.072857483e-09
8.005694582e-09
7.931460703e-09
7.850972103e-09
7.764974795e-09
7.67411442e-09
7.578943361e-09
7.479921076e-09
7.377409238e-09
7.271643543e-09
7.162759256e-09
7.050783228e-09
6.935641723e-09
6.817166912e-09
6.695103363e-09
6.569116138e-09
6.438798956e-09
6.303682125e-09
6.163240217e-09
6.016899391e-09
5.864044511e-09
5.704026218e-09
5.536168111e-09
5.359774158e-09
5.174136568e-09
4.978544297e-09
4.772292383e-09
4.554692242e-09
4.325083046e-09
4.082844214e-09
3.827408971e-09
3.558278829e-09
3.275038763e-09
2.977372725e-09
2.66507897e-09
2.338084555e-09
1.996458288e-09
1.640421305e-09
1.27035445e-09
8.868016387e-10
4.904685444e-10
8.221616601e-11
-3.369508383e-10
-7.659007971e-10
8.261541098e-09
8.254661058e-09
8.23752643e-09
8.210128128e-09
8.17386969e-09
8.129680967e-09
8.077991854e-09
8.019245693e-09
7.954018235e-09
7.882950228e-09
7.806632656e-09
7.725575913e-09
7.640218679e-09
7.550925323e-09
7.457975597e-09
7.361554103e-09
7.261753615e-09
7.158573995e-09
7.051923576e-09
6.941623331e-09
6.827411539e-09
6.708948918e-09
6.585824074e-09
6.45755903e-09
6.323614829e-09
6.1833972e-09
6.036262363e-09
5.881523077e-09
5.718455062e-09
5.546303991e-09
5.364293257e-09
5.171632751e-09
4.96752886e-09
4.751195877e-09
4.521868973e-09
4.27881878e-09
4.02136759e-09
3.748907035e-09
3.460916963e-09
3.156985103e-09
2.836826878e-09
2.500304541e-09
2.147444676e-09
1.778452941e-09
1.393724859e-09
9.938514864e-10
5.796189096e-10
1.520008066e-10
-2.878562233e-10
-7.386543346e-10
8.253073053e-09
8.247120312e-09
8.23232127e-09
8.208645768e-09
8.177256904e-09
8.138902692e-09
8.09389814e-09
8.042551204e-09
7.985334153e-09
7.922747028e-09
7.855243826e-09
7.783221558e-09
7.707022669e-09
7.626929249e-09
7.543152558e-09
7.455825017e-09
7.364997002e-09
7.270636138e-09
7.172627302e-09
7.070773935e-09
6.964800199e-09
6.854353642e-09
6.739008321e-09
6.618268234e-09
6.491571023e-09
6.358291949e-09
6.217748194e-09
6.06920363e-09
5.91187422e-09
5.744934296e-09
5.567523936e-09
5.378757741e-09
5.177735281e-09
4.963553452e-09
4.73532097e-09
4.492175153e-09
4.233301025e-09
3.95795267e-09
3.665476554e-09
3.355336327e-09
3.027138362e-09
2.680657019e-09
2.315858345e-09
1.932920687e-09
1.532250527e-09
1.114491801e-09
6.80527086e-10
2.314693617e-10
-2.31356337e-10
-7.064412665e-10
8.257215728e-09
8.252044036e-09
8.239258734e-09
8.218826051e-09
8.191705252e-09
8.158495351e-09
8.119426186e-09
8.074730393e-09
8.02476288e-09
7.96991303e-09
7.910535078e-09
7.846935924e-09
7.779377658e-09
7.70807222e-09
7.633171284e-09
7.554758194e-09
7.472843564e-09
7.387363181e-09
7.29817654e-09
7.205066005e-09
7.107736787e-09
7.00581758e-09
6.898861653e-09
6.78634829e-09
6.667684558e-09
6.542207449e-09
6.409186495e-09
6.267827017e-09
6.117274218e-09
5.95661839e-09
5.784901551e-09
5.601125854e-09
5.404264138e-09
5.193272971e-09
4.967108538e-09
4.724745621e-09
4.465199877e-09
4.187553373e-09
3.890983191e-09
3.574792588e-09
3.238443865e-09
2.881591729e-09
2.504115469e-09
2.106147905e-09
1.688098692e-09
1.250669448e-09
7.948581904e-10
3.219509132e-10
-1.665010703e-10
-6.687182511e-10
8.272099918e-09
8.267669544e-09
8.256705025e-09
8.239167127e-09
8.21585861e-09
8.187266749e-09
8.153560324e-09
8.114909187e-09
8.071583731e-09
8.023887769e-09
7.972096588e-09
7.916444306e-09
7.857126785e-09
7.794297317e-09
7.728057018e-09
7.658446632e-09
7.585441431e-09
7.508947815e-09
7.428800446e-09
7.344759825e-09
7.256510498e-09
7.163659823e-09
7.065737115e-09
6.962193104e-09
6.852399707e-09
6.735650211e-09
6.61115998e-09
6.478067877e-09
6.335438672e-09
6.182266747e-09
6.017481503e-09
5.839954905e-09
5.648511653e-09
5.441942491e-09
5.219021176e-09
4.978525558e-09
4.719263139e-09
4.440101287e-09
4.140002031e-09
3.818061014e-09
3.473549712e-09
3.105959467e-09
2.715045274e-09
2.30086655e-09
1.863821589e-09
1.404671921e-09
9.245526958e-10
4.249655037e-10
-9.224899687e-11
-6.249596136e-10
8.296287979e-09
8.292529804e-09
8.283208829e-09
8.26828414e-09
8.248429923e-09
8.224044981e-09
8.195252843e-09
8.162176673e-09
8.125024579e-09
8.084032906e-09
8.039413563e-09
7.991342974e-09
7.939964482e-09
7.885384315e-09
7.827662487e-09
7.766804636e-09
7.702756364e-09
7.635398861e-09
7.564544882e-09
7.489934965e-09
7.411234067e-09
7.328028551e-09
7.239823446e-09
7.146039899e-09
7.046012879e-09
6.938989195e-09
6.824126017e-09
6.700490092e-09
6.567057989e-09
6.422717751e-09
6.266272428e-09
6.096446073e-09
5.91189283e-09
5.711209845e-09
5.492954754e-09
5.255668468e-09
4.997903929e-09
4.718261321e-09
4.415429956e-09
4.088236621e-09
3.735699568e-09
3.357086557e-09
2.951974447e-09
2.520306799e-09
2.062444913e-09
1.579206811e-09
1.071888189e-09
5.422594393e-10
-7.466042894e-12
-5.746949056e-10
8.328381394e-09
8.325231804e-09
8.317414001e-09
8.304889382e-09
8.288217782e-09
8.267724263e-09
8.243500407e-09
8.215636712e-09
8.184294454e-09
8.149657846e-09
8.111889925e-09
8.071123105e-09
8.02746067e-09
7.980972679e-09
7.931687427e-09
7.879583465e-09
7.824583536e-09
7.766549412e-09
7.705276851e-09
7.640490601e-09
7.571839562e-09
7.498892102e-09
7.421131441e-09
7.337951062e-09
7.248650185e-09
7.152429402e-09
7.048386653e-09
6.935513787e-09
6.812694063e-09
6.67870103e-09
6.532199366e-09
6.371748388e-09
6.195809075e-09
6.002755559e-09
5.790892161e-09
5.558477083e-09
5.303753851e-09
5.02499152e-09
4.72053433e-09
4.388861067e-09
4.028653603e-09
3.63887309e-09
3.21884099e-09
2.768320504e-09
2.287592233e-09
1.777516215e-09
1.239571184e-09
6.758615271e-10
8.908334569e-11
-5.175561984e-10
8.367103349e-09
8.364517122e-09
8.358095642e-09
8.347805136e-09
8.334102899e-09
8.31725236e-09
8.297324219e-09
8.274387763e-09
8.248569963e-09
8.220015945e-09
8.188852495e-09
8.155179864e-09
8.119072322e-09
8.080573965e-09
8.039690706e-09
7.996382522e-09
7.950557067e-09
7.902063829e-09
7.850688183e-09
7.796145277e-09
7.738073827e-09
7.676029825e-09
7.609480041e-09
7.537795317e-09
7.460243647e-09
7.375983156e-09
7.284055144e-09
7.183377454e-09
7.072738526e-09
6.950792646e-09
6.816057041e-09
6.66691169e-09
6.501602895e-09
6.31825187e-09
6.114869793e-09
5.889380957e-09
5.639655747e-09
5.363555161e-09
5.058988402e-09
4.72398457e-09
4.356778689e-09
3.955910993e-09
3.520336636e-09
3.0495406e-09
2.543649794e-09
2.003531325e-09
1.430863115e-09
8.281613814e-10
1.987497734e-10
-4.533415613e-10
8.411270105e-09
8.409212285e-09
8.404101823e-09
8.395912175e-09
8.385008817e-09
8.371603441e-09
8.355754401e-09
8.337518884e-09
8.31699986e-09
8.29431428e-09
8.269563501e-09
8.242826084e-09
8.214157414e-09
8.183585381e-09
8.151102844e-09
8.11666011e-09
8.08015829e-09
8.041442875e-09
8.000296992e-09
7.956434277e-09
7.9094914e-09
7.8590202e-09
7.80447932e-09
7.745225296e-09
7.680503089e-09
7.609436133e-09
7.53101603e-09
7.444092132e-09
7.347361358e-09
7.239358774e-09
7.11844968e-09
6.982824168e-09
6.830495412e-09
6.659303243e-09
6.466924938e-09
6.250895484e-09
6.008639873e-09
5.737520186e-09
5.434900206e-09
5.098229958e-09
4.725151822e-09
4.313628321e-09
3.862089396e-09
3.369593666e-09
2.83599391e-09
2.262091926e-09
1.64976249e-09
1.002021467e-09
3.23011092e-10
-3.821215545e-10
8.459770243e-09
8.458212635e-09
8.454343941e-09
8.448146791e-09
8.439903707e-09
8.429782591e-09
8.41783621e-09
8.404117128e-09
8.388713007e-09
8.371721977e-09
8.353229454e-09
8.333301755e-09
8.311984775e-09
8.289299519e-09
8.265235022e-09
8.239741088e-09
8.212721457e-09
8.184026903e-09
8.153447813e-09
8.120706163e-09
8.085446872e-09
8.047228433e-09
8.005512711e-09
7.959653793e-09
7.908885849e-09
7.852309997e-09
7.788880252e-09
7.717388707e-09
7.636450268e-09
7.544487428e-09
7.439715843e-09
7.320131729e-09
7.183502521e-09
7.027362635e-09
6.849016732e-09
6.645553501e-09
6.413873542e-09
6.1507355e-09
5.852824932e-09
5.5168505e-09
5.13967148e-09
4.718459172e-09
4.25089198e-09
3.73537956e-09
3.171305158e-09
2.559267109e-09
1.901291109e-09
1.200975139e-09
4.635213271e-10
-3.043930004e-10
8.511551243e-09
8.510470292e-09
8.507785244e-09
8.503489334e-09
8.497789473e-09
8.490816388e-09
8.482622866e-09
8.473263116e-09
8.462816888e-09
8.451371582e-09
8.439005037e-09
8.425779855e-09
8.411741134e-09
8.396911881e-09
8.3812864e-09
8.364823316e-09
8.347438663e-09
8.328998616e-09
8.309311537e-09
8.288119192e-09
8.265087073e-09
8.239793653e-09
8.211718431e-09
8.180228584e-09
8.144564107e-09
8.103821334e-09
8.056934793e-09
8.002657447e-09
7.939539508e-09
7.865906227e-09
7.779835296e-09
7.679134888e-09
7.561323795e-09
7.423615754e-09
7.262910826e-09
7.075797505e-09
6.858570351e-09
6.607269045e-09
6.317745735e-09
5.985768388e-09
5.607168006e-09
5.178036713e-09
4.694981045e-09
4.155429439e-09
3.55798402e-09
2.902793759e-09
2.191909631e-09
1.429564181e-09
6.223027765e-10
-2.211161028e-10
8.565610088e-09
8.56498513e-09
8.563432587e-09
8.560957382e-09
8.55769709e-09
8.553750853e-09
8.549176151e-09
8.544034084e-09
8.5384028e-09
8.532365991e-09
8.526001321e-09
8.519375385e-09
8.512540545e-09
8.505530258e-09
8.498352968e-09
8.490985496e-09
8.483366153e-09
8.475387268e-09
8.466886867e-09
8.457639336e-09
8.447344888e-09
8.435617658e-09
8.42197217e-09
8.405807945e-09
8.386391999e-09
8.362838984e-09
8.334088777e-09
8.298881375e-09
8.255729102e-09
8.202886281e-09
8.138316804e-09
8.059660416e-09
7.964199055e-09
7.848825369e-09
7.710016494e-09
7.543817473e-09
7.34584017e-09
7.111285478e-09
6.834998762e-09
6.511570416e-09
6.135495085e-09
5.701403764e-09
5.204381661e-09
4.640379942e-09
4.006719127e-09
3.302663211e-09
2.530014192e-09
1.693636431e-09
8.017825128e-10
-1.339332785e-10
8.620987297e-09
8.620799173e-09
8.620331635e-09
8.619602116e-09
8.618684352e-09
8.617650671e-09
8.616567121e-09
8.615506081e-09
8.614549487e-09
8.613783429e-09
8.61329194e-09
8.613152544e-09
8.613432281e-09
8.614182992e-09
8.615435794e-09
8.617194939e-09
8.619431092e-09
8.622073852e-09
8.625003284e-09
8.628040262e-09
8.630935376e-09
8.633356149e-09
8.634872246e-09
8.634938333e-09
8.632874181e-09
8.627841627e-09
8.61881796e-09
8.604565359e-09
8.583596064e-09
8.554133088e-09
8.514066478e-09
8.460905528e-09
8.391727886e-09
8.303127324e-09
8.191163122e-09
8.051315646e-09
7.878454913e-09
7.666831718e-09
7.410104295e-09
7.101417879e-09
6.733558419e-09
6.299205282e-09
5.791309322e-09
5.203620703e-09
4.531382289e-09
3.772186276e-09
2.926954436e-09
2.000934529e-09
1.004498134e-09
-4.661852617e-11
8.676763816e-09
8.676993748e-09
8.677564616e-09
8.678506938e-09
8.679835576e-09
8.681600175e-09
8.683878513e-09
8.686757874e-09
8.690328556e-09
8.694684306e-09
8.699921239e-09
8.706133971e-09
8.713410904e-09
8.721829582e-09
8.731451815e-09
8.742318148e-09
8.754441493e-09
8.767799851e-09
8.782327979e-09
8.797907715e-09
8.8143567e-09
8.831415123e-09
8.848730127e-09
8.865837395e-09
8.882139361e-09
8.896879462e-09
8.909111754e-09
8.917665189e-09
8.921101819e-09
8.917668202e-09
8.905239437e-09
8.881255474e-09
8.842649849e-09
8.785771744e-09
8.7063035e-09
8.59917761e-09
8.458499934e-09
8.277489778e-09
8.048452756e-09
7.762808911e-09
7.411207597e-09
6.983769541e-09
6.470504226e-09
5.861954209e-09
5.150110254e-09
4.329622809e-09
3.399296608e-09
2.363810109e-09
1.235469576e-09
3.549172439e-11
8.732060235e-09
8.732688907e-09
8.734250224e-09
8.736788129e-09
8.740263233e-09
8.744706098e-09
8.750208751e-09
8.756876277e-09
8.764811131e-09
8.774119166e-09
8.784913458e-09
8.797311038e-09
8.811427541e-09
8.827372739e-09
8.845246439e-09
8.865133696e-09
8.887099009e-09
8.911179514e-09
8.937377076e-09
8.965649004e-09
8.995897013e-09
9.027954051e-09
9.061568497e-09
9.096385156e-09
9.13192235e-09
9.167544303e-09
9.202427864e-09
9.235522487e-09
9.265502216e-09
9.29070831e-09
9.309081079e-09
9.318079535e-09
9.314587676e-09
9.294806743e-09
9.254133824e-09
9.187028918e-09
9.086875559e-09
8.945844634e-09
8.75477793e-09
8.503118098e-09
8.178924903e-09
7.769037868e-09
7.259467904e-09
6.636126792e-09
5.886007061e-09
4.998912785e-09
3.969722074e-09
2.801080768e-09
1.506284813e-09
1.121357736e-10
8.786037902e-09
8.787044724e-09
8.78954535e-09
8.793597248e-09
8.799111202e-09
8.806101855e-09
8.814677365e-09
8.82496281e-09
8.837075833e-09
8.851138025e-09
8.867283424e-09
8.885655871e-09
8.90640316e-09
8.92967285e-09
8.955609057e-09
8.984348594e-09
9.016015936e-09
9.05071716e-09
9.088532833e-09
9.129509527e-09
9.173649575e-09
9.220898591e-09
9.27113022e-09
9.324127441e-09
9.379559592e-09
9.436954124e-09
9.495661826e-09
9.554814056e-09
9.613270164e-09
9.669553004e-09
9.721770082e-09
9.767517539e-09
9.803763988e-09
9.826711161e-09
9.831628736e-09
9.81266184e-09
9.762612133e-09
9.672697809e-09
9.532305314e-09
9.328757459e-09
9.047141122e-09
8.670264817e-09
8.178855421e-09
7.552180412e-09
6.769334618e-09
5.811629882e-09
4.666236503e-09
3.331427402e-09
1.821859918e-09
1.729456555e-10
8.837901602e-09
8.839264125e-09
8.842648292e-09
8.848124959e-09
8.855559402e-09
8.864953131e-09
8.876431702e-09
8.890141653e-09
8.906218084e-09
8.924801106e-09
8.946048781e-09
8.970135134e-09
8.997243933e-09
9.027564902e-09
9.061291539e-09
9.09861832e-09
9.139736673e-09
9.184829956e-09
9.234067495e-09
9.287597382e-09
9.345537584e-09
9.407964866e-09
9.474900966e-09
9.546295281e-09
9.62200315e-09
9.701758567e-09
9.785139842e-09
9.87152637e-09
9.960044182e-09
1.004949743e-08
1.013828221e-08
1.022427844e-08
1.030471443e-08
1.037599818e-08
1.043350827e-08
1.047133723e-08
1.048198081e-08
1.045596929e-08
1.038144359e-08
1.024369085e-08
1.002467601e-08
9.702637739e-09
9.251862754e-09
8.642828347e-09
7.842963893e-09
6.81889099e-09
5.540380875e-09
3.990617561e-09
2.177579854e-09
1.564720256e-10
8.886903432e-09
8.888596919e-09
8.892803157e-09
8.899606014e-09
8.908829556e-09
8.920464599e-09
8.93465474e-09
8.95156873e-09
8.971360597e-09
8.994190871e-09
9.020243692e-09
9.049725512e-09
9.082858632e-09
9.119877941e-09
9.161029847e-09
9.206570709e-09
9.256764012e-09
9.311876662e-09
9.372174546e-09
9.437917057e-09
9.509350133e-09
9.586697319e-09
9.670148297e-09
9.759844148e-09
9.855858384e-09
9.958172506e-09
1.006664446e-08
1.01809679e-08
1.030061959e-08
1.042479137e-08
1.055230218e-08
1.068148438e-08
1.081003663e-08
1.093483386e-08
1.105168206e-08
1.115500284e-08
1.123743003e-08
1.128929836e-08
1.129800585e-08
1.124723895e-08
1.111607544e-08
1.087801606e-08
1.050011148e-08
9.942357482e-09
9.157778511e-09
8.093471353e-09
6.69199996e-09
4.902132702e-09
2.681112092e-09
8.508679572e-11
8.932347608e-09
8.934344737e-09
8.939305158e-09
8.947325121e-09
8.95819181e-09
8.971887473e-09
8.988573772e-09
9.008441675e-09
9.031664818e-09
9.058425118e-09
9.088933784e-09
9.12343071e-09
9.162177907e-09
9.205456847e-09
9.253568599e-09
9.306833582e-09
9.365590129e-09
9.430192332e-09
9.50100744e-09
9.578412512e-09
9.662789914e-09
9.754521219e-09
9.853978994e-09
9.961515822e-09
1.007744962e-08
1.020204404e-08
1.033548232e-08
1.047783245e-08
1.062900079e-08
1.078867029e-08
1.095621817e-08
1.113060616e-08
1.131023394e-08
1.149274302e-08
1.1674754e-08
1.185151377e-08
1.201642108e-08
1.216038819e-08
1.227098422e-08
1.233129133e-08
1.231841147e-08
1.220155633e-08
1.19398933e-08
1.14801797e-08
1.075617874e-08
9.68815239e-09
8.190554575e-09
6.175633958e-09
3.532608577e-09
2.563999766e-10
8.973595873e-09
8.975866586e-09
8.981506505e-09
8.990623395e-09
9.00297194e-09
9.018527647e-09
9.037469652e-09
9.060010417e-09
9.086343036e-09
9.116670857e-09
9.151232033e-09
9.190299627e-09
9.234175047e-09
9.283186052e-09
9.33768812e-09
9.398065599e-09
9.464731769e-09
9.538128419e-09
9.618725297e-09
9.707019215e-09
9.803532418e-09
9.908809892e-09
1.002341519e-08
1.014792425e-08
1.028291638e-08
1.042896138e-08
1.058660129e-08
1.075632488e-08
1.093853207e-08
1.113348459e-08
1.134123776e-08
1.156154621e-08
1.179373348e-08
1.203651142e-08
1.228772927e-08
1.254402352e-08
1.280032624e-08
1.304916968e-08
1.327969404e-08
1.347621431e-08
1.361614204e-08
1.366689899e-08
1.358156284e-08
1.329211602e-08
1.270300446e-08
1.167788881e-08
1.006055372e-08
7.64633661e-09
4.336089057e-09
9.769507635e-11
9.010073224e-09
9.012584711e-09
9.018822614e-09
9.028905102e-09
9.042558819e-09
9.059754078e-09
9.080686308e-09
9.105588018e-09
9.134670809e-09
9.168158561e-09
9.206315142e-09
9.2494452e-09
9.29788768e-09
9.352014525e-09
9.412233251e-09
9.4789895e-09
9.552768647e-09
9.634097184e-09
9.723544342e-09
9.8217238e-09
9.929295204e-09
1.004696524e-08
1.017548802e-08
1.031566445e-08
1.04683399e-08
1.06343995e-08
1.081475985e-08
1.101035565e-08
1.122211887e-08
1.145094755e-08
1.169765955e-08
1.196292498e-08
1.224716811e-08
1.25504256e-08
1.287214144e-08
1.321087007e-08
1.356384415e-08
1.392633987e-08
1.429073434e-08
1.464507822e-08
1.497089442e-08
1.523962719e-08
1.540689947e-08
1.540190879e-08
1.511118035e-08
1.433688151e-08
1.277486998e-08
9.798194333e-09
4.935645314e-09
-2.950526241e-09
9.04127368e-09
9.043990491e-09
9.050738314e-09
9.061644386e-09
9.076411844e-09
9.095007106e-09
9.11764015e-09
9.144561401e-09
9.175999257e-09
9.21219633e-09
9.25343989e-09
9.300063301e-09
9.352439661e-09
9.410981177e-09
9.476142879e-09
9.548426507e-09
9.628383617e-09
9.716618731e-09
9.813793101e-09
9.920629037e-09
1.003791458e-08
1.016650848e-08
1.03073453e-08
1.046144059e-08
1.06298958e-08
1.081390248e-08
1.101474512e-08
1.123380158e-08
1.147253969e-08
1.173250788e-08
1.201531652e-08
1.232260534e-08
1.265598993e-08
1.301697694e-08
1.340683272e-08
1.382638224e-08
1.427570325e-08
1.475366154e-08
1.525720235e-08
1.578025848e-08
1.631204491e-08
1.683430286e-08
1.731675391e-08
1.770869759e-08
1.792408952e-08
1.780202486e-08
1.704603685e-08
1.487368402e-08
1.005783084e-08
-3.949920463e-09
9.066765807e-09
9.069650085e-09
9.076813789e-09
9.088391685e-09
9.104068014e-09
9.123806367e-09
9.147829028e-09
9.176401582e-09
9.209766812e-09
9.24818344e-09
9.291958827e-09
9.341450969e-09
9.397062295e-09
9.459239637e-09
9.528478954e-09
9.605330412e-09
9.690402839e-09
9.784368485e-09
9.887968754e-09
1.000202094e-08
1.012742587e-08
1.026517651e-08
1.041636759e-08
1.058220639e-08
1.076402465e-08
1.096329153e-08
1.118162757e-08
1.142081915e-08
1.168283298e-08
1.196982955e-08