/*--------------------------------*- C++ -*----------------------------------*\
| =========                 |                                                 |
| \\      /  F ield         | foam-extend: Open Source CFD                    |
|  \\    /   O peration     | Version:     4.1                                |
|   \\  /    A nd           | Web:         http://www.foam-extend.org         |
|    \\/     M anipulation  |                                                 |
\*---------------------------------------------------------------------------*/
FoamFile
{
    version     2.0;
    format      ascii;
    class       surfaceScalarField;
    location    "20000";
    object      phi;
}
// * * * * * * * * * * * * * * * * * * * * * * * * * * * * * * * * * * * * * //

dimensions      [0 3 -1 0 0 0 0];

internalField   nonuniform List<scalar> 
31542
(
1.062568544e-07
3.073145583e-09
1.006311185e-07
5.625735883e-09
9.413723646e-08
6.493882056e-09
8.736681314e-08
6.770423321e-09
8.060037819e-08
6.766434952e-09
7.409641601e-08
6.503962191e-09
6.802804687e-08
6.068369145e-09
6.248972607e-08
5.538320804e-09
5.752626924e-08
4.96345684e-09
5.31475854e-08
4.378683853e-09
4.933902284e-08
3.808562569e-09
4.60678158e-08
3.271207051e-09
4.328932689e-08
2.778488919e-09
4.095284782e-08
2.336479078e-09
3.900590826e-08
1.946939556e-09
3.739718418e-08
1.608724087e-09
3.607840124e-08
1.318782931e-09
3.500549092e-08
1.07291032e-09
3.413916797e-08
8.663229552e-10
3.344508893e-08
6.940790397e-10
3.289373e-08
5.513589374e-10
3.246008538e-08
4.336446194e-10
3.212325758e-08
3.368278053e-10
3.186599045e-08
2.572671367e-10
3.167417705e-08
1.91813402e-10
3.153630396e-08
1.378730869e-10
3.144306102e-08
9.324294075e-11
3.138751963e-08
5.554138736e-11
3.136449102e-08
2.302861701e-11
3.137012731e-08
-5.636296052e-12
3.139869989e-08
-2.857257932e-11
3.144803963e-08
-4.933974115e-11
3.151561317e-08
-6.75735364e-11
3.159922661e-08
-8.361343287e-11
3.169703966e-08
-9.781303998e-11
3.180742669e-08
-1.103870265e-10
3.192884023e-08
-1.214135345e-10
3.205984108e-08
-1.310008505e-10
3.219926896e-08
-1.394278807e-10
3.234576274e-08
-1.464937682e-10
3.249773566e-08
-1.519729135e-10
3.265359368e-08
-1.55858014e-10
3.281172563e-08
-1.581319414e-10
3.297045529e-08
-1.587296512e-10
3.312804064e-08
-1.575853376e-10
3.32826875e-08
-1.546468564e-10
3.343255785e-08
-1.498703388e-10
3.357577623e-08
-1.432183823e-10
3.371043855e-08
-1.346623088e-10
-1.241843733e-10
3.383462292e-08
1.113825538e-07
1.020591792e-09
1.13996077e-07
3.012212629e-09
1.16090128e-07
4.399831103e-09
1.174756467e-07
5.384904583e-09
1.1811218e-07
6.129901635e-09
1.179953109e-07
6.620831341e-09
1.172184513e-07
6.845228748e-09
1.159097952e-07
6.84697688e-09
1.141957571e-07
6.677494994e-09
1.121943173e-07
6.3801236e-09
1.100104266e-07
5.992453299e-09
1.077326775e-07
5.5489561e-09
1.054326293e-07
5.078537165e-09
1.031658658e-07
4.603242574e-09
1.009736196e-07
4.139185708e-09
9.888487646e-08
3.697467263e-09
9.691854353e-08
3.28511586e-09
9.508553371e-08
2.905920138e-09
9.339066308e-08
2.561193578e-09
9.183427547e-08
2.250466635e-09
9.041356458e-08
1.972069822e-09
8.912361269e-08
1.723596498e-09
8.795818278e-08
1.502257717e-09
8.691030419e-08
1.305145715e-09
8.597274222e-08
1.129375368e-09
8.513837506e-08
9.722402512e-10
8.440035386e-08
8.312641491e-10
8.375171278e-08
7.041824749e-10
8.318558719e-08
5.891542158e-10
8.269514026e-08
4.848106315e-10
8.227645084e-08
3.90116847e-10
8.192360328e-08
3.035078173e-10
8.163188613e-08
2.241436219e-10
8.139686248e-08
1.514102107e-10
8.121430143e-08
8.474801982e-11
8.108031563e-08
2.359878403e-11
8.099078973e-08
-3.188762557e-11
8.09420725e-08
-8.22836093e-11
8.093143323e-08
-1.2878861e-10
8.095473485e-08
-1.697953858e-10
8.100831395e-08
-2.055520117e-10
8.10887585e-08
-2.363025707e-10
8.119267546e-08
-2.620489122e-10
8.131668818e-08
-2.827423825e-10
8.145744382e-08
-2.983409969e-10
8.161160139e-08
-3.088044441e-10
8.177582347e-08
-3.140924397e-10
8.194677298e-08
-3.141679166e-10
8.212111251e-08
-3.09001858e-10
-2.985774169e-10
8.229550552e-08
1.096500571e-07
7.005346987e-10
1.107427001e-07
1.919569607e-09
1.122124562e-07
2.930074984e-09
1.138792499e-07
3.718110962e-09
1.156535989e-07
4.355552584e-09
1.174078408e-07
4.866589447e-09
1.190170858e-07
5.235983812e-09
1.204010043e-07
5.463058376e-09
1.215154389e-07
5.563060423e-09
1.223424707e-07
5.553091767e-09
1.228852997e-07
5.449624286e-09
1.231638387e-07
5.270417093e-09
1.232084911e-07
5.033884828e-09
1.230544375e-07
4.757296146e-09
1.227378891e-07
4.455734122e-09
1.222936051e-07
4.14175125e-09
1.217534161e-07
3.825304841e-09
1.211454304e-07
3.513905897e-09
1.204937579e-07
3.212866044e-09
1.198185845e-07
2.92564004e-09
1.191364547e-07
2.654199656e-09
1.184606638e-07
2.399387413e-09
1.178016948e-07
2.161226736e-09
1.171676597e-07
1.939180774e-09
1.16564677e-07
1.732358089e-09
1.159972333e-07
1.539683976e-09
1.154684762e-07
1.360021253e-09
1.149804157e-07
1.192242902e-09
1.145342582e-07
1.035311702e-09
1.141307355e-07
8.883334011e-10
1.137702756e-07
7.505766893e-10
1.13452424e-07
6.21359462e-10
1.131764931e-07
5.000744824e-10
1.129416323e-07
3.862710867e-10
1.127467625e-07
2.796178221e-10
1.125904641e-07
1.798971777e-10
1.124714008e-07
8.717566989e-11
1.123856712e-07
3.446005614e-12
1.123348517e-07
-7.796914195e-11
1.123150933e-07
-1.500369659e-10
1.123248533e-07
-2.153119965e-10
1.123622026e-07
-2.736518812e-10
1.124250329e-07
-3.248791809e-10
1.125111714e-07
-3.688808688e-10
1.126183597e-07
-4.055292724e-10
1.127442331e-07
-4.346778287e-10
1.128863271e-07
-4.561864877e-10
1.13042085e-07
-4.699257686e-10
1.132088642e-07
-4.757810731e-10
-4.736576606e-10
1.133839445e-07
1.095679965e-07
4.625382177e-10
1.10100655e-07
1.386911083e-09
1.108297206e-07
2.201009357e-09
1.116820051e-07
2.865826534e-09
1.126444484e-07
3.393109254e-09
1.13706819e-07
3.804218873e-09
1.148363743e-07
4.10642844e-09
1.159939782e-07
4.305454531e-09
1.171437129e-07
4.41332573e-09
1.182531415e-07
4.44366314e-09
1.192944466e-07
4.408319225e-09
1.202467798e-07
4.318083828e-09
1.210971181e-07
4.183546606e-09
1.218395677e-07
4.014846497e-09
1.224741884e-07
3.821113417e-09
1.230056677e-07
3.610271989e-09
1.23441955e-07
3.389017459e-09
1.23793024e-07
3.162836938e-09
1.240698349e-07
2.936055117e-09
1.242835456e-07
2.711929415e-09
1.244449573e-07
2.492787882e-09
1.245641597e-07
2.280185058e-09
1.246503294e-07
2.075057071e-09
1.247116433e-07
1.877866803e-09
1.247552681e-07
1.688733304e-09
1.24787409e-07
1.507543069e-09
1.248133889e-07
1.33404135e-09
1.248377305e-07
1.167901294e-09
1.248642584e-07
1.008783843e-09
1.248961953e-07
8.563964974e-10
1.249362648e-07
7.105072007e-10
1.249866869e-07
5.709373927e-10
1.250492413e-07
4.375200847e-10
1.251253812e-07
3.101311804e-10
1.252162035e-07
1.887954987e-10
1.253222244e-07
7.387625854e-11
1.254437517e-07
-3.435163154e-11
1.255831913e-07
-1.359935731e-10
1.25737001e-07
-2.317788109e-10
1.259073291e-07
-3.203650796e-10
1.26093692e-07
-4.016748644e-10
1.26295645e-07
-4.756048921e-10
1.26512641e-07
-5.418751965e-10
1.267439306e-07
-6.001705486e-10
1.269885869e-07
-6.501855745e-10
1.272455336e-07
-6.916244844e-10
1.275135514e-07
-7.242042522e-10
1.277912852e-07
-7.476595984e-10
1.280772523e-07
-7.617481714e-10
-7.662548886e-10
1.283698495e-07
1.094429314e-07
3.496068449e-10
1.097736574e-07
1.056185089e-09
1.102723961e-07
1.702270623e-09
1.108857257e-07
2.252496959e-09
1.115763257e-07
2.702509232e-09
1.123207708e-07
3.05977376e-09
1.130978322e-07
3.329367093e-09
1.13888499e-07
3.514787674e-09
1.146788648e-07
3.622959929e-09
1.154587631e-07
3.663764884e-09
1.162196912e-07
3.647391085e-09
1.169544058e-07
3.583369295e-09
1.176572538e-07
3.480698603e-09
1.183243273e-07
3.347773013e-09
1.189533613e-07
3.192079365e-09
1.195435916e-07
3.020041678e-09
1.200955732e-07
2.837035916e-09
1.206109499e-07
2.647460235e-09
1.210921923e-07
2.454812668e-09
1.215423396e-07
2.261782128e-09
1.219647701e-07
2.070357394e-09
1.223630109e-07
1.881944273e-09
1.227405882e-07
1.697479715e-09
1.231009179e-07
1.517537103e-09
1.234472311e-07
1.342420136e-09
1.237825299e-07
1.172244328e-09
1.241095652e-07
1.007005961e-09
1.244308283e-07
8.46638218e-10
1.247485612e-07
6.910509959e-10
1.250647924e-07
5.401653017e-10
1.253813658e-07
3.939337748e-10
1.256997304e-07
2.525727726e-10
1.260213265e-07
1.159239805e-10
1.263470863e-07
-1.562861311e-11
1.266780947e-07
-1.422128971e-10
1.270153838e-07
-2.634128433e-10
1.273602918e-07
-3.792596252e-10
1.277136896e-07
-4.893913475e-10
1.280753302e-07
-5.934194143e-10
1.28445892e-07
-6.909269043e-10
1.288255929e-07
-7.813757077e-10
1.292143567e-07
-8.643687292e-10
1.296119812e-07
-9.394996874e-10
1.300181381e-07
-1.006327445e-09
1.304323647e-07
-1.064412209e-09
1.308540714e-07
-1.113331131e-09
1.312825473e-07
-1.152680148e-09
1.317169648e-07
-1.182077124e-09
1.321563838e-07
-1.201167184e-09
-1.209627774e-09
1.325997567e-07
1.094077302e-07
2.718766568e-10
1.096457928e-07
8.181225395e-10
1.100190164e-07
1.329046967e-09
1.104918565e-07
1.779656841e-09
1.110344263e-07
2.159939451e-09
1.116246963e-07
2.469503815e-09
1.122441579e-07
2.709905476e-09
1.128760977e-07
2.882847817e-09
1.135070449e-07
2.992012786e-09
1.141273357e-07
3.043474091e-09
1.147303322e-07
3.044394593e-09
1.153116938e-07
3.002007687e-09
1.158690286e-07
2.923363703e-09
1.164015716e-07
2.815230071e-09
1.169097771e-07
2.683873815e-09
1.173949547e-07
2.534864078e-09
1.178589974e-07
2.37299327e-09
1.183041763e-07
2.202281288e-09
1.187329747e-07
2.026014333e-09
1.191479534e-07
1.846803359e-09
1.195516498e-07
1.666661062e-09
1.199465035e-07
1.487090539e-09
1.203348072e-07
1.309175999e-09
1.207186754e-07
1.133668951e-09
1.211000284e-07
9.610670669e-10
1.214805888e-07
7.916839941e-10
1.218618849e-07
6.257098148e-10
1.222452592e-07
4.632639796e-10
1.226318685e-07
3.044416943e-10
1.230227163e-07
1.493174525e-10
1.234192211e-07
-2.570962459e-12
1.238214084e-07
-1.496145384e-10
1.242304436e-07
-2.93111244e-10
1.24647135e-07
-4.32319975e-10
1.250720019e-07
-5.670798426e-10
1.255055749e-07
-6.969858443e-10
1.259480003e-07
-8.216850755e-10
1.263993939e-07
-9.407848791e-10
1.268598378e-07
-1.053863299e-09
1.273293475e-07
-1.160436682e-09
1.278078828e-07
-1.259911013e-09
1.282952486e-07
-1.351734498e-09
1.287911332e-07
-1.435384324e-09
1.292951329e-07
-1.510327139e-09
1.298067463e-07
-1.576025588e-09
1.303253705e-07
-1.631955336e-09
1.308503036e-07
-1.677613278e-09
1.313807486e-07
-1.712522098e-09
1.31915817e-07
-1.736235607e-09
-1.748344345e-09
1.324545336e-07
1.09388754e-07
2.131226934e-10
1.09565213e-07
6.416635143e-10
1.098464812e-07
1.047778752e-09
1.102122831e-07
1.413854954e-09
1.106426673e-07
1.729555264e-09
1.111208373e-07
1.99133383e-09
1.116320388e-07
2.198703977e-09
1.12162573e-07
2.352313586e-09
1.127004222e-07
2.454163642e-09
1.13236005e-07
2.50789128e-09
1.137621673e-07
2.518232268e-09
1.142738411e-07
2.490333863e-09
1.147677907e-07
2.429414094e-09
1.152424017e-07
2.340619119e-09
1.156974081e-07
2.22886739e-09
1.161335865e-07
2.09868566e-09
1.165524745e-07
1.954105318e-09
1.169561303e-07
1.798625404e-09
1.173469305e-07
1.635214169e-09
1.17727402e-07
1.46633186e-09
1.181000924e-07
1.293970697e-09
1.184674746e-07
1.119708295e-09
1.188318822e-07
9.447683854e-10
1.191954686e-07
7.700825641e-10
1.195601853e-07
5.963503546e-10
1.199277752e-07
4.240941272e-10
1.2029978e-07
2.537050025e-10
1.206775648e-07
8.547918574e-11
1.210623389e-07
-8.033240909e-11
1.214551558e-07
-2.43499473e-10
1.218563787e-07
-4.037938754e-10
1.222675089e-07
-5.607446823e-10
1.226887251e-07
-7.14327468e-10
1.231205655e-07
-8.641603754e-10
1.235633296e-07
-1.009843992e-09
1.240173046e-07
-1.150960756e-09
1.244826658e-07
-1.287046286e-09
1.249594832e-07
-1.417602287e-09
1.254477032e-07
-1.542083289e-09
1.259471561e-07
-1.65988964e-09
1.264576235e-07
-1.770378416e-09
1.269787941e-07
-1.872905031e-09
1.275102443e-07
-1.966834563e-09
1.280514478e-07
-2.051530637e-09
1.286017796e-07
-2.126357404e-09
1.291605163e-07
-2.190692075e-09
1.297268384e-07
-2.243935364e-09
1.302998347e-07
-2.285518346e-09
1.308785077e-07
-2.31490859e-09
-2.331616291e-09
1.314617796e-07
1.093748843e-07
1.68238446e-10
1.095100115e-07
5.065362972e-10
1.097284167e-07
8.293735138e-10
1.100181657e-07
1.124105987e-09
1.103656126e-07
1.38210839e-09
1.107578347e-07
1.59911175e-09
1.11183068e-07
1.773470648e-09
1.116305118e-07
1.904869733e-09
1.1209054e-07
1.994135452e-09
1.125551069e-07
2.043324413e-09
1.130178632e-07
2.055475882e-09
1.134740196e-07
2.034177521e-09
1.139201862e-07
1.983247512e-09
1.143542439e-07
1.906561375e-09
1.147751922e-07
1.807919119e-09
1.151829606e-07
1.690917262e-09
1.15578214e-07
1.558851876e-09
1.159621729e-07
1.414666491e-09
1.163364533e-07
1.260933827e-09
1.167029269e-07
1.099858195e-09
1.170636044e-07
9.33293234e-10
1.174205409e-07
7.627717777e-10
1.177757652e-07
5.895440866e-10
1.181312271e-07
4.146206479e-10
1.184887576e-07
2.388198432e-10
1.1885006e-07
6.279171078e-11
1.192166881e-07
-1.129230314e-10
1.195900233e-07
-2.878560622e-10
1.199712808e-07
-4.615898569e-10
1.203615191e-07
-6.337378566e-10
1.207616555e-07
-8.039302109e-10
1.211726725e-07
-9.717617371e-10
1.215951551e-07
-1.136810038e-09
1.220296463e-07
-1.298651581e-09
1.224765976e-07
-1.456795229e-09
1.229363399e-07
-1.610703063e-09
1.23409084e-07
-1.759790459e-09
1.238949144e-07
-1.903432642e-09
1.24393795e-07
-2.040963922e-09
1.249055855e-07
-2.17168016e-09
1.254300536e-07
-2.2948465e-09
1.259668593e-07
-2.409710704e-09
1.26515541e-07
-2.515516267e-09
1.27075518e-07
-2.611507697e-09
1.276460967e-07
-2.696936097e-09
1.282264737e-07
-2.771069047e-09
1.288157395e-07
-2.833201153e-09
1.29412884e-07
-2.882662853e-09
1.300168035e-07
-2.918828058e-09
-2.941121173e-09
1.306263083e-07
1.093655153e-07
1.32723124e-10
1.09472563e-07
3.994886671e-10
1.09646867e-07
6.550695145e-10
1.098807723e-07
8.902006758e-10
1.101648572e-07
1.098023518e-09
1.104895477e-07
1.274421218e-09
1.108458113e-07
1.417207018e-09
1.112252621e-07
1.525418992e-09
1.116202846e-07
1.599112943e-09
1.120242741e-07
1.639334899e-09
1.124317903e-07
1.647959641e-09
1.128385537e-07
1.62741412e-09
1.132413694e-07
1.580431823e-09
1.136380416e-07
1.509889143e-09
1.140272745e-07
1.418686285e-09
1.14408549e-07
1.30964269e-09
1.147819891e-07
1.18541186e-09
1.151482301e-07
1.048425449e-09
1.155082993e-07
9.008645895e-10
1.158635074e-07
7.446501291e-10
1.162153538e-07
5.814468105e-10
1.165654469e-07
4.126786502e-10
1.169154387e-07
2.395523666e-10
1.172669899e-07
6.306941267e-11
1.176216887e-07
-1.158790206e-10
1.179810653e-07
-2.965848162e-10
1.183465488e-07
-4.784065774e-10
1.187194679e-07
-6.607751795e-10
1.191010473e-07
-8.431692851e-10
1.194923975e-07
-1.025088061e-09
1.198945048e-07
-1.206037515e-09
1.203082468e-07
-1.385503663e-09
1.207343816e-07
-1.562944841e-09
1.211735391e-07
-1.73780905e-09
1.216262358e-07
-1.909491986e-09
1.220928675e-07
-2.077334752e-09
1.225737101e-07
-2.240633023e-09
1.230689176e-07
-2.398640165e-09
1.235785217e-07
-2.550568047e-09
1.241024317e-07
-2.695590173e-09
1.246404333e-07
-2.832848041e-09
1.25192184e-07
-2.96146144e-09
1.257572087e-07
-3.080540979e-09
1.263348994e-07
-3.1891984e-09
1.269245189e-07
-3.286555556e-09
1.275252046e-07
-3.371754741e-09
1.281359734e-07
-3.443969984e-09
1.287557283e-07
-3.502417737e-09
1.293832666e-07
-3.546366389e-09
-3.575144657e-09
1.300172901e-07
1.093587956e-07
1.039274853e-10
1.094455053e-07
3.127790186e-10
1.095873047e-07
5.132700843e-10
1.097790885e-07
6.984169359e-10
1.100143417e-07
8.627703084e-10
1.102860949e-07
1.002668056e-09
1.105874817e-07
1.115820148e-09
1.109119597e-07
1.200941002e-09
1.112534634e-07
1.257609287e-09
1.116065908e-07
1.286207439e-09
1.119667504e-07
1.287800087e-09
1.123302103e-07
1.263954212e-09
1.126940781e-07
1.216564014e-09
1.130562519e-07
1.147715347e-09
1.134153565e-07
1.059581696e-09
1.13770663e-07
9.543362007e-10
1.14121996e-07
8.340788558e-10
1.144696382e-07
7.00783289e-10
1.148142389e-07
5.562638242e-10
1.151567298e-07
4.021592429e-10
1.154982456e-07
2.399310412e-10
1.158400699e-07
7.085427777e-11
1.161835607e-07
-1.039384133e-10
1.165301054e-07
-2.8347528e-10
1.168811187e-07
-4.668923767e-10
1.172379677e-07
-6.534337809e-10
1.176019779e-07
-8.424167524e-10
1.179744118e-07
-1.033209144e-09
1.183564544e-07
-1.225211819e-09
1.187492053e-07
-1.417839029e-09
1.191536697e-07
-1.610501892e-09
1.195707585e-07
-1.802592438e-09
1.200012865e-07
-1.993472865e-09
1.204459486e-07
-2.182471167e-09
1.209053247e-07
-2.368868094e-09
1.213798807e-07
-2.551890717e-09
1.218699621e-07
-2.730714392e-09
1.223757868e-07
-2.904464903e-09
1.228974395e-07
-3.072220767e-09
1.234348672e-07
-3.23301783e-09
1.23987876e-07
-3.385856854e-09
1.245561285e-07
-3.529713876e-09
1.251391398e-07
-3.663552298e-09
1.257362764e-07
-3.786335065e-09
1.263467576e-07
-3.897036734e-09
1.269696591e-07
-3.994656194e-09
1.27603919e-07
-4.078229958e-09
1.282483463e-07
-4.146845037e-09
1.289016306e-07
-4.199650643e-09
-4.235868372e-09
1.295623543e-07
1.093537493e-07
8.017820512e-11
1.094252297e-07
2.412986109e-10
1.09542508e-07
3.959917494e-10
1.097020721e-07
5.388528898e-10
1.09899323e-07
6.655194029e-10
1.101291484e-07
7.728426605e-10
1.10386328e-07
8.586405805e-10
1.106657665e-07
9.215024733e-10
1.109626575e-07
9.607182545e-10
1.112726364e-07
9.762285909e-10
1.115919001e-07
9.685363446e-10
1.119172706e-07
9.385837356e-10
1.12246206e-07
8.876286609e-10
1.125767824e-07
8.171389559e-10
1.129076581e-07
7.287059748e-10
1.132380236e-07
6.23970701e-10
1.135675402e-07
5.045622844e-10
1.138962722e-07
3.720512858e-10
1.142246166e-07
2.279194344e-10
1.145532534e-07
7.352244344e-11
1.148830561e-07
-8.987168002e-11
1.152150542e-07
-2.611438902e-10
1.15550401e-07
-4.392851611e-10
1.158903067e-07
-6.233810072e-10
1.162360245e-07
-8.126101586e-10
1.165888116e-07
-1.006220889e-09
1.169499101e-07
-1.203515269e-09
1.173205307e-07
-1.403829812e-09
1.177018371e-07
-1.606518171e-09
1.180949329e-07
-1.81093484e-09
1.185008511e-07
-2.016420062e-09
1.18920545e-07
-2.222286374e-09
1.193548795e-07
-2.427807309e-09
1.198046178e-07
-2.632209502e-09
1.202704154e-07
-2.834665658e-09
1.207528133e-07
-3.034288612e-09
1.212522289e-07
-3.23013001e-09
1.217689461e-07
-3.421182066e-09
1.223031064e-07
-3.606381116e-09
1.22854702e-07
-3.784613434e-09
1.234235689e-07
-3.954723742e-09
1.240093813e-07
-4.115526246e-09
1.246116467e-07
-4.265817732e-09
1.252297037e-07
-4.404392044e-09
1.258627224e-07
-4.530055408e-09
1.265097085e-07
-4.641642366e-09
1.271695105e-07
-4.738031982e-09
1.278408291e-07
-4.818163563e-09
1.285222295e-07
-4.881051116e-09
-4.925795908e-09
1.292121571e-07
1.093498678e-07
6.03104407e-11
1.094096497e-07
1.815166547e-10
1.095079798e-07
2.976616747e-10
1.096423666e-07
4.044661449e-10
1.098094936e-07
4.983923908e-10
1.100055808e-07
5.767554511e-10
1.102266668e-07
6.375545515e-10
1.104688032e-07
6.793661176e-10
1.107282013e-07
7.013201125e-10
1.110013581e-07
7.030718563e-10
1.112851566e-07
6.847378106e-10
1.115769307e-07
6.468096806e-10
1.118744929e-07
5.900664977e-10
1.121761369e-07
5.154948747e-10
1.124806223e-07
4.242206224e-10
1.127871451e-07
3.174478578e-10
1.130952952e-07
1.964122252e-10
1.134050279e-07
6.23186218e-11
1.137165813e-07
-8.363400598e-11
1.140304451e-07
-2.403413608e-10
1.143473365e-07
-4.067630875e-10
1.146681249e-07
-5.819323246e-10
1.149938027e-07
-7.649629597e-10
1.153254552e-07
-9.550334857e-10
1.156642264e-07
-1.151381429e-09
1.160112956e-07
-1.353290064e-09
1.163678544e-07
-1.560074091e-09
1.167350886e-07
-1.771063978e-09
1.171141611e-07
-1.985590639e-09
1.175061971e-07
-2.202970925e-09
1.17912271e-07
-2.422493917e-09
1.18333393e-07
-2.643408389e-09
1.187704976e-07
-2.864911889e-09
1.192244302e-07
-3.086142075e-09
1.196959344e-07
-3.306169894e-09
1.201856403e-07
-3.523994457e-09
1.206940513e-07
-3.738541083e-09
1.212215319e-07
-3.948662647e-09
1.217682944e-07
-4.153143592e-09
1.223343876e-07
-4.350706657e-09
1.229196864e-07
-4.540022555e-09
1.235238828e-07
-4.719722617e-09
1.241464792e-07
-4.888414081e-09
1.247867846e-07
-5.044697518e-09
1.25443915e-07
-5.187185765e-09
1.261167964e-07
-5.314523816e-09
1.268041735e-07
-5.425408996e-09
1.275046205e-07
-5.518610612e-09
1.282165575e-07
-5.592988082e-09
-5.647506657e-09
1.289382682e-07
1.093468092e-07
4.350124096e-11
1.093973795e-07
1.309463237e-10
1.09480722e-07
2.143192071e-10
1.095950297e-07
2.901584524e-10
1.097378727e-07
3.555493827e-10
1.099064338e-07
4.081943794e-10
1.100977011e-07
4.462872301e-10
1.103086169e-07
4.68450373e-10
1.105361998e-07
4.737371578e-10
1.107776494e-07
4.616223009e-10
1.110304315e-07
4.31955779e-10
1.112923388e-07
3.849022972e-10
1.115615259e-07
3.208794649e-10
1.118365213e-07
2.404994233e-10
1.121162197e-07
1.445222872e-10
1.123998951e-07
3.377240029e-11
1.126871238e-07
-9.081642798e-11
1.129777982e-07
-2.283558077e-10
1.132720921e-07
-3.779279653e-10
1.135704037e-07
-5.386529402e-10
1.138733305e-07
-7.09689892e-10
1.141816363e-07
-8.902381158e-10
1.144962155e-07
-1.079542125e-09
1.148180685e-07
-1.27688653e-09
1.151482752e-07
-1.481588138e-09
1.154879712e-07
-1.69298604e-09
1.158383267e-07
-1.910429642e-09
1.162005282e-07
-2.133265455e-09
1.16575761e-07
-2.360823445e-09
1.169651936e-07
-2.59240349e-09
1.173699619e-07
-2.827262271e-09
1.177911545e-07
-3.064600967e-09
1.182297968e-07
-3.303554223e-09
1.186868356e-07
-3.54318084e-09
1.191631222e-07
-3.782456425e-09
1.196593959e-07
-4.020268222e-09
1.201762676e-07
-4.255412783e-09
1.207142019e-07
-4.486596875e-09
1.212734999e-07
-4.712441672e-09
1.218542836e-07
-4.931490345e-09
1.224564803e-07
-5.142219247e-09
1.230798104e-07
-5.343052695e-09
1.237237775e-07
-5.532381155e-09
1.243876623e-07
-5.708582365e-09
1.250705213e-07
-5.870044767e-09
1.2577119e-07
-6.015192473e-09
1.264882918e-07
-6.142510803e-09
1.272202524e-07
-6.250571258e-09
1.27965319e-07
-6.338054652e-09
-6.403771118e-09
1.287215835e-07
1.093443426e-07
2.915865343e-11
1.09387497e-07
8.779189666e-11
1.094587332e-07
1.430830252e-10
1.095567178e-07
1.921738591e-10
1.096796463e-07
2.326208894e-10
1.098254007e-07
2.624399966e-10
1.099916818e-07
2.800061298e-10
1.101761204e-07
2.840117602e-10
1.103763744e-07
2.734831674e-10
1.105902149e-07
2.477818773e-10
1.108155979e-07
2.065727286e-10
1.110507182e-07
1.497820329e-10
1.112940428e-07
7.755489052e-11
1.115443504e-07
-9.80817821e-12
1.118006721e-07
-1.117994853e-10
1.120623629e-07
-2.279183323e-10
1.123290691e-07
-3.575226491e-10
1.126006795e-07
-4.99966205e-10
1.12877333e-07
-6.545815008e-10
1.13159381e-07
-8.207009802e-10
1.134473619e-07
-9.976707926e-10
1.137419789e-07
-1.184855059e-09
1.140440739e-07
-1.381637121e-09
1.143546043e-07
-1.587416929e-09
1.146746209e-07
-1.801604774e-09
1.150052476e-07
-2.023612787e-09
1.153476625e-07
-2.252844487e-09
1.157030798e-07
-2.488682795e-09
1.160727335e-07
-2.730477132e-09
1.164578602e-07
-2.977530125e-09
1.168596823e-07
-3.229084387e-09
1.172793911e-07
-3.484309795e-09
1.177181286e-07
-3.742291724e-09
1.181769685e-07
-4.002020727e-09
1.186568962e-07
-4.262384117e-09
1.191587878e-07
-4.522159885e-09
1.196833886e-07
-4.780013536e-09
1.202312901e-07
-5.034498353e-09
1.208029079e-07
-5.284059532e-09
1.2139846e-07
-5.527042469e-09
1.220179463e-07
-5.761705495e-09
1.226611308e-07
-5.986237179e-09
1.233275277e-07
-6.198778076e-09
1.240163919e-07
-6.397446526e-09
1.247267149e-07
-6.580367844e-09
1.254572284e-07
-6.745705885e-09
1.262064133e-07
-6.891695709e-09
1.269725178e-07
-7.016675792e-09
1.277535812e-07
-7.119118017e-09
-7.197653651e-09
1.285474637e-07
1.093423062e-07
1.685248722e-11
1.09379365e-07
5.073307874e-11
1.094406236e-07
8.182437562e-11
1.095250829e-07
1.077145884e-10
1.096313874e-07
1.263164119e-10
1.097579311e-07
1.358963276e-10
1.099029509e-07
1.349862934e-10
1.100646189e-07
1.223437867e-10
1.10241094e-07
9.700810523e-11
1.10430608e-07
5.826791927e-11
1.106315252e-07
5.655509526e-12
1.108423879e-07
-6.108071919e-11
1.110619449e-07
-1.420021102e-10
1.112891563e-07
-2.370195613e-10
1.115232677e-07
-3.459108736e-10
1.117637252e-07
-4.683758953e-10
1.120102367e-07
-6.040340709e-10
1.122627298e-07
-7.52459365e-10
1.125213472e-07
-9.13198849e-10
1.127864301e-07
-1.085783947e-09
1.130584997e-07
-1.269740371e-09
1.133382379e-07
-1.464593202e-09
1.136264685e-07
-1.669867776e-09
1.13924139e-07
-1.885087432e-09
1.142323024e-07
-2.109768184e-09
1.145521005e-07
-2.343410829e-09
1.148847469e-07
-2.585490948e-09
1.152315113e-07
-2.835447195e-09
1.155937025e-07
-3.092668342e-09
1.15972652e-07
-3.356479563e-09
1.16369696e-07
-3.626128405e-09
1.167861571e-07
-3.900770905e-09
1.172233237e-07
-4.179458359e-09
1.176824283e-07
-4.46112528e-09
1.181646233e-07
-4.74457914e-09
1.18670956e-07
-5.028492524e-09
1.192023408e-07
-5.311398369e-09
1.197595315e-07
-5.591689029e-09
1.203430917e-07
-5.867619811e-09
1.209533668e-07
-6.137317583e-09
1.215904563e-07
-6.398794953e-09
1.222541894e-07
-6.649970328e-09
1.229441052e-07
-6.888693892e-09
1.236594379e-07
-7.112779212e-09
1.243991098e-07
-7.320039716e-09
1.251617328e-07
-7.508328877e-09
1.259456195e-07
-7.675582401e-09
1.26748804e-07
-7.819860323e-09
1.275690726e-07
-7.939386539e-09
-8.032583188e-09
1.284040021e-07
1.09340592e-07
6.260521326e-12
1.093725376e-07
1.87874807e-11
1.094254075e-07
2.895443316e-11
1.094984467e-07
3.46754369e-11
1.095906287e-07
3.413441431e-11
1.097007276e-07
2.579747476e-11
1.098273616e-07
8.352219564e-12
1.09969151e-07
-1.944556465e-11
1.101246404e-07
-5.848131544e-11
1.102924345e-07
-1.095261914e-10
1.104712341e-07
-1.731440528e-10
1.106598676e-07
-2.497142276e-10
1.108573276e-07
-3.394621135e-10
1.110627893e-07
-4.424812375e-10
1.112756321e-07
-5.587536874e-10
1.114954299e-07
-6.881736654e-10
1.117219638e-07
-8.305680677e-10
1.119552168e-07
-9.857122734e-10
1.121953641e-07
-1.153346146e-09
1.124427646e-07
-1.333184518e-09
1.126979487e-07
-1.524924417e-09
1.129616046e-07
-1.728249134e-09
1.132345657e-07
-1.942828838e-09
1.135177963e-07
-2.168318065e-09
1.138123785e-07
-2.404350331e-09
1.141194978e-07
-2.650530137e-09
1.144404296e-07
-2.906422736e-09
1.147765244e-07
-3.171541993e-09
1.151291927e-07
-3.445336687e-09
1.154998888e-07
-3.727175667e-09
1.158900927e-07
-4.016332267e-09
1.163012902e-07
-4.311968459e-09
1.167349512e-07
-4.613119281e-09
1.17192504e-07
-4.918678158e-09
1.176753087e-07
-5.22738382e-09
1.181846258e-07
-5.537809621e-09
1.187215836e-07
-5.84835614e-09
1.192871426e-07
-6.157248027e-09
1.198820588e-07
-6.462536063e-09
1.205068466e-07
-6.762105377e-09
1.211617423e-07
-7.05369066e-09
1.21846671e-07
-7.334899008e-09
1.225612178e-07
-7.603240718e-09
1.233046065e-07
-7.856167897e-09
1.240756869e-07
-8.091120162e-09
1.248729341e-07
-8.305576046e-09
1.256944597e-07
-8.49710797e-09
1.265380373e-07
-8.663437941e-09
1.274011412e-07
-8.802490505e-09
-8.912439176e-09
1.282809972e-07
1.093391699e-07
-2.90938972e-12
1.093667481e-07
-8.790719983e-12
1.094124248e-07
-1.672219567e-11
1.094756285e-07
-2.852830445e-11
1.095555755e-07
-4.581256035e-11
1.096513274e-07
-6.995440025e-11
1.097618643e-07
-1.02184651e-10
1.098860332e-07
-1.436144427e-10
1.100227292e-07
-1.951773926e-10
1.101708602e-07
-2.57657122e-10
1.103293983e-07
-3.316822166e-10
1.104974189e-07
-4.177348312e-10
1.106741254e-07
-5.161685411e-10
1.108588693e-07
-6.272252172e-10
1.110511667e-07
-7.510510509e-10
1.112507062e-07
-8.877132184e-10
1.114573544e-07
-1.037216259e-09
1.116711569e-07
-1.199514732e-09
1.118923354e-07
-1.374524625e-09
1.121212829e-07
-1.562132079e-09
1.123585575e-07
-1.762199014e-09
1.126048743e-07
-1.974565853e-09
1.128610967e-07
-2.199051291e-09
1.131282278e-07
-2.435449136e-09
1.134073999e-07
-2.683522379e-09
1.136998644e-07
-2.942994649e-09
1.140069809e-07
-3.213539256e-09
1.14330205e-07
-3.494766059e-09
1.146710747e-07
-3.7862064e-09
1.150311955e-07
-4.087296442e-09
1.154122225e-07
-4.397359266e-09
1.158158402e-07
-4.715586196e-09
1.162437388e-07
-5.041017905e-09
1.166975866e-07
-5.372525989e-09
1.171789986e-07
-5.708795816e-09
1.176895007e-07
-6.048311637e-09
1.182304896e-07
-6.389345089e-09
1.188031899e-07
-6.729948345e-09
1.194086071e-07
-7.067953306e-09
1.2004748e-07
-7.400978197e-09
1.207202322e-07
-7.726442937e-09
1.214269276e-07
-8.041594411e-09
1.221672293e-07
-8.343542433e-09
1.22940368e-07
-8.62930662e-09
1.237451215e-07
-8.895873598e-09
1.245798084e-07
-9.140263007e-09
1.254423001e-07
-9.359599667e-09
1.263300503e-07
-9.551188097e-09
1.272401443e-07
-9.712584532e-09
-9.841660896e-09
1.28169366e-07
1.093379839e-07
-1.089329097e-11
1.093617881e-07
-3.259490427e-11
1.094012026e-07
-5.61366475e-11
1.094557967e-07
-8.312237785e-11
1.09524973e-07
-1.149889054e-10
1.09608014e-07
-1.5299541e-10
1.097041151e-07
-1.982856845e-10
1.098124079e-07
-2.519072782e-10
1.099320214e-07
-3.147909155e-10
1.100621016e-07
-3.877373175e-10
1.10201843e-07
-4.714235861e-10
1.103505203e-07
-5.664121202e-10
1.105075128e-07
-6.731610866e-10
1.106723237e-07
-7.920360821e-10
1.10844595e-07
-9.233223536e-10
1.110241191e-07
-1.06723729e-09
1.112108453e-07
-1.223942439e-09
1.114048844e-07
-1.39355383e-09
1.116065103e-07
-1.576150582e-09
1.118161597e-07
-1.771781497e-09
1.120344299e-07
-1.980469169e-09
1.122620755e-07
-2.202211464e-09
1.125000045e-07
-2.436980316e-09
1.127492732e-07
-2.684717782e-09
1.130110802e-07
-2.945329357e-09
1.132867601e-07
-3.218674564e-09
1.135777757e-07
-3.504554919e-09
1.13885709e-07
-3.802699358e-09
1.1421225e-07
-4.112747302e-09
1.145591831e-07
-4.434229556e-09
1.149283712e-07
-4.766547363e-09
1.15321735e-07
-5.108950003e-09
1.157412286e-07
-5.460511497e-09
1.161888097e-07
-5.820107122e-09
1.166664046e-07
-6.186390663e-09
1.171758665e-07
-6.557773564e-09
1.177189288e-07
-6.932407368e-09
1.182971515e-07
-7.308171103e-09
1.189118637e-07
-7.682665476e-09
1.195641014e-07
-8.05321589e-09
1.202545447e-07
-8.416886335e-09
1.209834564e-07
-8.770506068e-09
1.217506246e-07
-9.110710632e-09
1.22555316e-07
-9.43399809e-09
1.233962428e-07
-9.736800342e-09
1.242715478e-07
-1.001556801e-08
1.251788138e-07
-1.026686572e-08
1.261150986e-07
-1.048747285e-08
1.270769969e-07
-1.067448289e-08
-1.082539324e-08
1.280607293e-07
1.093368372e-07