/*--------------------------------*- C++ -*----------------------------------*\
| =========                 |                                                 |
| \\      /  F ield         | foam-extend: Open Source CFD                    |
|  \\    /   O peration     | Version:     4.1                                |
|   \\  /    A nd           | Web:         http://www.foam-extend.org         |
|    \\/     M anipulation  |                                                 |
\*---------------------------------------------------------------------------*/
FoamFile
{
    version     2.0;
    format      ascii;
    class       volVectorField;
    location    "20000";
    object      U;
}
// * * * * * * * * * * * * * * * * * * * * * * * * * * * * * * * * * * * * * //

dimensions      [0 1 -1 0 0 0 0];

internalField   nonuniform List<vector> 
15920
(
(0.0002132445168 5.114423984e-06 0)
(0.0002058697278 1.129108141e-05 0)
(0.0001957811233 1.369887327e-05 0)
(0.0001822900035 1.417247338e-05 0)
(0.0001679316692 1.371769191e-05 0)
(0.000154357633 1.264228087e-05 0)
(0.0001418310722 1.113088969e-05 0)
(0.0001302704795 9.407506271e-06 0)
(0.0001197495328 7.670077145e-06 0)
(0.0001103883975 6.04491739e-06 0)
(0.0001022124144 4.599835653e-06 0)
(9.516034235e-05 3.366271843e-06 0)
(8.913955312e-05 2.350285256e-06 0)
(8.40513686e-05 1.539439386e-06 0)
(7.979354496e-05 9.104582584e-07 0)
(7.62621005e-05 4.358067727e-07 0)
(7.335650141e-05 8.782036699e-08 0)
(7.098394705e-05 -1.590681633e-07 0)
(6.906116629e-05 -3.272196087e-07 0)
(6.751477802e-05 -4.354088527e-07 0)
(6.628115632e-05 -4.989358467e-07 0)
(6.530600942e-05 -5.299971251e-07 0)
(6.454368251e-05 -5.381460625e-07 0)
(6.395626758e-05 -5.307507755e-07 0)
(6.351264775e-05 -5.134142263e-07 0)
(6.318741863e-05 -4.902769247e-07 0)
(6.29597875e-05 -4.640826571e-07 0)
(6.281373494e-05 -4.361899153e-07 0)
(6.273704358e-05 -4.077555832e-07 0)
(6.272172067e-05 -3.806009419e-07 0)
(6.275759299e-05 -3.577483179e-07 0)
(6.283711909e-05 -3.380677385e-07 0)
(6.295501726e-05 -3.200983646e-07 0)
(6.310703245e-05 -3.035397568e-07 0)
(6.328927151e-05 -2.884896777e-07 0)
(6.349824094e-05 -2.748837301e-07 0)
(6.373075567e-05 -2.623706363e-07 0)
(6.398378584e-05 -2.508218745e-07 0)
(6.425484539e-05 -2.403414252e-07 0)
(6.454144909e-05 -2.300224618e-07 0)
(6.484064374e-05 -2.19322089e-07 0)
(6.514923291e-05 -2.082151238e-07 0)
(6.546399218e-05 -1.966630154e-07 0)
(6.578163978e-05 -1.844798014e-07 0)
(6.609876647e-05 -1.714512157e-07 0)
(6.641183439e-05 -1.574032267e-07 0)
(6.671720578e-05 -1.421988407e-07 0)
(6.701116334e-05 -1.257255103e-07 0)
(6.728992433e-05 -1.078933856e-07 0)
(6.754965856e-05 -8.8636995e-08 0)
(0.0002201174623 5.634952393e-06 0)
(0.0002251684331 1.291322022e-05 0)
(0.0002303492781 1.655855653e-05 0)
(0.0002340503696 1.847682705e-05 0)
(0.000235994614 1.957190808e-05 0)
(0.0002364091469 1.996752767e-05 0)
(0.0002354747751 1.970923199e-05 0)
(0.000233353321 1.894026488e-05 0)
(0.0002302747309 1.781871069e-05 0)
(0.0002265012184 1.646697227e-05 0)
(0.0002222694844 1.497983362e-05 0)
(0.0002177726643 1.343700664e-05 0)
(0.0002131667828 1.190408737e-05 0)
(0.0002085773624 1.043066037e-05 0)
(0.0002041012249 9.05088783e-06 0)
(0.0001998082802 7.785871815e-06 0)
(0.0001957454956 6.646192934e-06 0)
(0.0001919416973 5.634240843e-06 0)
(0.0001884118323 4.746387814e-06 0)
(0.0001851604483 3.974937402e-06 0)
(0.0001821845679 3.309736489e-06 0)
(0.0001794760409 2.739422275e-06 0)
(0.0001770233843 2.252342957e-06 0)
(0.000174813146 1.83720564e-06 0)
(0.0001728309403 1.483511403e-06 0)
(0.0001710622384 1.18178701e-06 0)
(0.0001694928813 9.236820106e-07 0)
(0.0001681092201 7.020605075e-07 0)
(0.0001668975842 5.107817269e-07 0)
(0.0001658446468 3.445917961e-07 0)
(0.0001649376815 1.987954091e-07 0)
(0.0001641680401 7.037043593e-08 0)
(0.0001635258823 -4.293347537e-08 0)
(0.0001630014419 -1.431350126e-07 0)
(0.0001625858774 -2.319288097e-07 0)
(0.0001622711915 -3.105708174e-07 0)
(0.0001620495812 -3.800225837e-07 0)
(0.0001619131201 -4.406753348e-07 0)
(0.0001618553949 -4.945347559e-07 0)
(0.0001618697195 -5.409325126e-07 0)
(0.0001619484664 -5.792516644e-07 0)
(0.0001620842533 -6.094059063e-07 0)
(0.0001622702482 -6.314116592e-07 0)
(0.0001624997909 -6.452243938e-07 0)
(0.0001627661885 -6.507667653e-07 0)
(0.0001630627334 -6.47958866e-07 0)
(0.0001633827392 -6.367275436e-07 0)
(0.0001637195344 -6.170106938e-07 0)
(0.0001640664481 -5.887627655e-07 0)
(0.0001644168062 -5.519609399e-07 0)
(0.0002187791314 1.462280643e-06 0)
(0.00022004043 4.373358506e-06 0)
(0.0002226254144 6.988553554e-06 0)
(0.0002259700246 9.321898126e-06 0)
(0.0002295414369 1.139524479e-05 0)
(0.0002331080855 1.309317312e-05 0)
(0.000236503024 1.43198706e-05 0)
(0.0002395352083 1.507150146e-05 0)
(0.0002420576444 1.539403334e-05 0)
(0.0002440034616 1.534557924e-05 0)
(0.0002453663925 1.498963931e-05 0)
(0.0002461756646 1.439470829e-05 0)
(0.0002464834243 1.362887529e-05 0)
(0.0002463565632 1.275342742e-05 0)
(0.0002458682091 1.181938667e-05 0)
(0.0002450906567 1.086691369e-05 0)
(0.0002440911205 9.92606181e-06 0)
(0.0002429297338 9.017995561e-06 0)
(0.0002416587492 8.156436744e-06 0)
(0.0002403224114 7.349200544e-06 0)
(0.0002389573203 6.599652781e-06 0)
(0.0002375931312 5.907973182e-06 0)
(0.0002362534176 5.272190567e-06 0)
(0.0002349565703 4.688998129e-06 0)
(0.0002337166391 4.154376067e-06 0)
(0.0002325440709 3.66402211e-06 0)
(0.0002314463616 3.213586849e-06 0)
(0.0002304285831 2.798810239e-06 0)
(0.0002294938505 2.41588016e-06 0)
(0.0002286439276 2.061749721e-06 0)
(0.0002278797731 1.734317953e-06 0)
(0.0002272015364 1.431066277e-06 0)
(0.000226608156 1.149740878e-06 0)
(0.0002260978806 8.886552817e-07 0)
(0.0002256687021 6.465400064e-07 0)
(0.00022531819 4.224128392e-07 0)
(0.000225043659 2.152873692e-07 0)
(0.0002248403744 2.449575925e-08 0)
(0.0002247044514 -1.48212664e-07 0)
(0.0002246341836 -3.037108645e-07 0)
(0.0002246253656 -4.428403292e-07 0)
(0.0002246735927 -5.656235074e-07 0)
(0.0002247747907 -6.718005262e-07 0)
(0.000224924815 -7.611604139e-07 0)
(0.000225119266 -8.335413498e-07 0)
(0.000225353506 -8.887818027e-07 0)
(0.0002256226966 -9.267187104e-07 0)
(0.0002259218143 -9.47207611e-07 0)
(0.0002262456581 -9.50136693e-07 0)
(0.0002265888622 -9.354324466e-07 0)
(0.0002187707276 1.478855977e-06 0)
(0.0002194991217 4.301403692e-06 0)
(0.00022077886 6.688170745e-06 0)
(0.0002224257194 8.526133811e-06 0)
(0.0002242803828 9.909417958e-06 0)
(0.0002263089125 1.09410478e-05 0)
(0.0002285055406 1.166849198e-05 0)
(0.0002308135409 1.212413038e-05 0)
(0.0002331456271 1.234512236e-05 0)
(0.0002354234025 1.23667469e-05 0)
(0.0002375868238 1.221877262e-05 0)
(0.0002395895546 1.192873646e-05 0)
(0.0002413980278 1.152398912e-05 0)
(0.0002429930618 1.103083865e-05 0)
(0.0002443692728 1.047335086e-05 0)
(0.0002455322817 9.872812869e-06 0)
(0.0002464955195 9.247549227e-06 0)
(0.0002472775063 8.612790702e-06 0)
(0.0002478996394 7.98064656e-06 0)
(0.0002483844026 7.360266355e-06 0)
(0.0002487540173 6.758162554e-06 0)
(0.0002490295356 6.178614926e-06 0)
(0.0002492303064 5.624095355e-06 0)
(0.0002493737129 5.095677343e-06 0)
(0.000249475095 4.593401917e-06 0)
(0.0002495477967 4.116607416e-06 0)
(0.0002496033028 3.664210563e-06 0)
(0.0002496514114 3.234934552e-06 0)
(0.0002497004215 2.827528643e-06 0)
(0.0002497573268 2.44089246e-06 0)
(0.0002498280234 2.074044971e-06 0)
(0.0002499174377 1.725971726e-06 0)
(0.0002500295598 1.395753625e-06 0)
(0.0002501675844 1.082763002e-06 0)
(0.0002503340101 7.866077988e-07 0)
(0.0002505307185 5.072782995e-07 0)
(0.0002507584909 2.451905471e-07 0)
(0.0002510181511 5.704665715e-10 0)
(0.0002513116342 -2.250823093e-07 0)
(0.0002516365419 -4.324363181e-07 0)
(0.0002519930878 -6.219494834e-07 0)
(0.0002523814207 -7.932822363e-07 0)
(0.0002528006741 -9.458155774e-07 0)
(0.0002532493841 -1.078955872e-06 0)
(0.0002537258061 -1.192144542e-06 0)
(0.0002542279445 -1.284826248e-06 0)
(0.000254753516 -1.356457455e-06 0)
(0.0002552999455 -1.406531162e-06 0)
(0.000255864388 -1.43459366e-06 0)
(0.0002564437523 -1.440252104e-06 0)
(0.0002187114747 1.02453314e-06 0)
(0.000219118108 2.978259238e-06 0)
(0.0002199352868 4.712458749e-06 0)
(0.0002210811184 6.168426801e-06 0)
(0.0002224208076 7.358220069e-06 0)
(0.0002238717336 8.306248858e-06 0)
(0.0002253990367 9.019943382e-06 0)
(0.0002269744402 9.506036914e-06 0)
(0.0002285649938 9.784480422e-06 0)
(0.0002301427554 9.883528158e-06 0)
(0.0002316885738 9.831575091e-06 0)
(0.0002331880999 9.654829256e-06 0)
(0.0002346289642 9.3777433e-06 0)
(0.00023600128 9.022847305e-06 0)
(0.0002372986612 8.610124649e-06 0)
(0.0002385182144 8.156705576e-06 0)
(0.0002396599628 7.67690684e-06 0)
(0.0002407262854 7.18239261e-06 0)
(0.0002417214403 6.682367834e-06 0)
(0.0002426510781 6.1838247e-06 0)
(0.0002435217484 5.691845391e-06 0)
(0.0002443404634 5.209929235e-06 0)
(0.0002451143542 4.740312151e-06 0)
(0.0002458504165 4.2842614e-06 0)
(0.0002465553319 3.842337879e-06 0)
(0.0002472353531 3.414624894e-06 0)
(0.0002478962414 3.000916673e-06 0)
(0.0002485432395 2.600864185e-06 0)
(0.0002491810774 2.214080702e-06 0)
(0.0002498139994 1.840234784e-06 0)
(0.0002504458606 1.479010459e-06 0)
(0.0002510800141 1.130549494e-06 0)
(0.0002517192976 7.948657702e-07 0)
(0.0002523663426 4.721629442e-07 0)
(0.0002530225445 1.629043867e-07 0)
(0.0002536900952 -1.323491808e-07 0)
(0.000254371376 -4.128493104e-07 0)
(0.0002550694364 -6.777420038e-07 0)
(0.0002557846023 -9.279219157e-07 0)
(0.000256516824 -1.162124872e-06 0)
(0.0002572668602 -1.378907039e-06 0)
(0.0002580352288 -1.57721469e-06 0)
(0.0002588217236 -1.75611951e-06 0)
(0.0002596257012 -1.914669995e-06 0)
(0.000260446318 -2.051904086e-06 0)
(0.0002612825339 -2.166885639e-06 0)
(0.0002621330629 -2.258725249e-06 0)
(0.0002629963658 -2.326590777e-06 0)
(0.0002638706687 -2.369716373e-06 0)
(0.00026475398 -2.387412119e-06 0)
(0.0002186958956 7.807418723e-07 0)
(0.0002189836657 2.309504477e-06 0)
(0.0002195799234 3.729685189e-06 0)
(0.0002204453631 4.97661918e-06 0)
(0.0002214874955 6.023292544e-06 0)
(0.0002226362027 6.867510108e-06 0)
(0.0002238534123 7.513050779e-06 0)
(0.0002251113178 7.966822927e-06 0)
(0.0002263814828 8.242711382e-06 0)
(0.0002276388166 8.360550139e-06 0)
(0.0002288660102 8.342085058e-06 0)
(0.0002300526756 8.208687327e-06 0)
(0.0002311927792 7.98090627e-06 0)
(0.0002322833586 7.678141481e-06 0)
(0.000233324132 7.318000093e-06 0)
(0.0002343169952 6.915803687e-06 0)
(0.0002352653334 6.48445428e-06 0)
(0.0002361734479 6.034531376e-06 0)
(0.0002370461796 5.574477342e-06 0)
(0.00023788864 5.110826376e-06 0)
(0.0002387059874 4.648467738e-06 0)
(0.0002395032462 4.190923568e-06 0)
(0.0002402851814 3.740617823e-06 0)
(0.0002410562198 3.299122051e-06 0)
(0.000241820407 2.867372686e-06 0)
(0.0002425813896 2.445858408e-06 0)
(0.0002433424184 2.034777281e-06 0)
(0.0002441063562 1.634166854e-06 0)
(0.0002448757234 1.244019699e-06 0)
(0.0002456526329 8.643336152e-07 0)
(0.0002464393563 4.95262995e-07 0)
(0.0002472376712 1.366889089e-07 0)
(0.0002480486601 -2.110111218e-07 0)
(0.0002488736598 -5.472236727e-07 0)
(0.0002497149199 -8.712041485e-07 0)
(0.0002505732394 -1.182479842e-06 0)
(0.0002514491101 -1.48062469e-06 0)
(0.0002523428553 -1.765020347e-06 0)
(0.0002532546573 -2.034788281e-06 0)
(0.0002541845895 -2.288384123e-06 0)
(0.000255132635 -2.524321176e-06 0)
(0.0002560985939 -2.74140633e-06 0)
(0.0002570819806 -2.938511286e-06 0)
(0.0002580820605 -3.114444472e-06 0)
(0.0002590979123 -3.267987832e-06 0)
(0.0002601284341 -3.397952917e-06 0)
(0.0002611723265 -3.503203303e-06 0)
(0.0002622280901 -3.582662696e-06 0)
(0.0002632940361 -3.635325735e-06 0)
(0.0002643682978 -3.66027124e-06 0)
(0.0002186872583 6.099658404e-07 0)
(0.0002189023629 1.809999863e-06 0)
(0.0002193482064 2.939127157e-06 0)
(0.0002200062179 3.947257041e-06 0)
(0.0002208193453 4.807862391e-06 0)
(0.000221739359 5.514635952e-06 0)
(0.0002227353898 6.069061334e-06 0)
(0.0002237829947 6.474973701e-06 0)
(0.0002248576582 6.739619021e-06 0)
(0.0002259367054 6.874355918e-06 0)
(0.0002270025473 6.893133616e-06 0)
(0.0002280430846 6.810774962e-06 0)
(0.0002290504398 6.642151246e-06 0)
(0.0002300199798 6.401767989e-06 0)
(0.0002309498941 6.103305319e-06 0)
(0.0002318407955 5.759191947e-06 0)
(0.0002326951511 5.380367459e-06 0)
(0.0002335167007 4.976217725e-06 0)
(0.0002343099875 4.554604094e-06 0)
(0.0002350799975 4.121946487e-06 0)
(0.0002358318723 3.683351525e-06 0)
(0.000236570685 3.242774705e-06 0)
(0.0002373012788 2.803198826e-06 0)
(0.0002380281635 2.366813073e-06 0)
(0.0002387554569 1.935183537e-06 0)
(0.0002394868579 1.50940648e-06 0)
(0.0002402256512 1.090248323e-06 0)
(0.0002409747221 6.782581649e-07 0)
(0.000241736626 2.73876812e-07 0)
(0.000242513686 -1.224934808e-07 0)
(0.0002433074039 -5.103433266e-07 0)
(0.0002441193123 -8.894867938e-07 0)
(0.0002449511799 -1.259294356e-06 0)
(0.00024580404 -1.619028483e-06 0)
(0.0002466785082 -1.968053336e-06 0)
(0.0002475751055 -2.305502445e-06 0)
(0.000248494314 -2.630324175e-06 0)
(0.0002494364229 -2.941307821e-06 0)
(0.0002504014601 -3.237118053e-06 0)
(0.0002513891962 -3.516342656e-06 0)
(0.00025239922 -3.777541351e-06 0)
(0.0002534309919 -4.019286592e-06 0)
(0.0002544837949 -4.240138502e-06 0)
(0.0002555566888 -4.438630193e-06 0)
(0.0002566485177 -4.61329526e-06 0)
(0.0002577579285 -4.762702283e-06 0)
(0.0002588833774 -4.885475552e-06 0)
(0.000260023133 -4.980308702e-06 0)
(0.0002611752843 -5.045979085e-06 0)
(0.000262337753 -5.081362557e-06 0)
(0.0002186808757 4.796522993e-07 0)
(0.0002188456317 1.424791367e-06 0)
(0.0002191892985 2.321790032e-06 0)
(0.0002197038421 3.135862277e-06 0)
(0.0002203522331 3.844834304e-06 0)
(0.0002211002554 4.438887568e-06 0)
(0.0002219232928 4.914627676e-06 0)
(0.0002228009243 5.271802963e-06 0)
(0.0002237134125 5.51339061e-06 0)
(0.0002246425512 5.645921761e-06 0)
(0.0002255734465 5.678590184e-06 0)
(0.000226494954 5.621947501e-06 0)
(0.000227399106 5.487035624e-06 0)
(0.0002282805351 5.284922963e-06 0)
(0.0002291361773 5.026336122e-06 0)
(0.0002299650247 4.721314231e-06 0)
(0.0002307677702 4.378959829e-06 0)
(0.0002315464049 4.007313273e-06 0)
(0.0002323038542 3.61331763e-06 0)
(0.0002330436777 3.202840729e-06 0)
(0.0002337698181 2.780739954e-06 0)
(0.000234486391 2.350960245e-06 0)
(0.0002351975194 1.916653381e-06 0)
(0.0002359072097 1.480303207e-06 0)
(0.0002366192641 1.043861673e-06 0)
(0.0002373372188 6.088518001e-07 0)
(0.0002380643449 1.764780064e-07 0)
(0.0002388036065 -2.522666727e-07 0)
(0.0002395575746 -6.765323494e-07 0)
(0.0002403285075 -1.095516872e-06 0)
(0.0002411183976 -1.508505943e-06 0)
(0.000241929082 -1.91441718e-06 0)
(0.0002427621863 -2.312409969e-06 0)
(0.0002436188926 -2.70162127e-06 0)
(0.000244500113 -3.081002128e-06 0)
(0.0002454066147 -3.449300761e-06 0)
(0.000246338965 -3.805167363e-06 0)
(0.0002472974707 -4.147188483e-06 0)
(0.0002482821779 -4.473874686e-06 0)
(0.0002492929015 -4.783645036e-06 0)
(0.0002503292588 -5.074819865e-06 0)
(0.0002513906777 -5.345666522e-06 0)
(0.0002524763671 -5.594441592e-06 0)
(0.0002535852908 -5.819406483e-06 0)
(0.0002547161714 -6.018840491e-06 0)
(0.0002558675073 -6.191061944e-06 0)
(0.0002570375833 -6.334450867e-06 0)
(0.0002582244782 -6.447468827e-06 0)
(0.0002594260756 -6.528676643e-06 0)
(0.0002606400779 -6.576750561e-06 0)
(0.0002186765504 3.783486863e-07 0)
(0.0002188071025 1.125191849e-06 0)
(0.0002190803158 1.838410388e-06 0)
(0.0002194926724 2.49251551e-06 0)
(0.0002200185192 3.068955351e-06 0)
(0.0002206333415 3.557069806e-06 0)
(0.0002213185914 3.951484623e-06 0)
(0.0002220582347 4.250203619e-06 0)
(0.000222836666 4.454166504e-06 0)
(0.0002236393204 4.567110774e-06 0)
(0.0002244538303 4.59497884e-06 0)
(0.0002252704297 4.545081377e-06 0)
(0.00022608174 4.425430961e-06 0)
(0.000226882454 4.244315718e-06 0)
(0.0002276691251 4.009977591e-06 0)
(0.000228439984 3.730326706e-06 0)
(0.0002291947001 3.412717563e-06 0)
(0.0002299341058 3.063811616e-06 0)
(0.0002306599303 2.689514494e-06 0)
(0.000231374568 2.294964586e-06 0)
(0.0002320808779 1.884558865e-06 0)
(0.0002327820104 1.462004395e-06 0)
(0.0002334812606 1.030396174e-06 0)
(0.0002341819618 5.922977998e-07 0)
(0.0002348873929 1.498229415e-07 0)
(0.0002356006979 -2.952573964e-07 0)
(0.000236324826 -7.414335313e-07 0)
(0.0002370625407 -1.18738363e-06 0)
(0.0002378164064 -1.631903618e-06 0)
(0.0002385887618 -2.073854714e-06 0)
(0.0002393817057 -2.512121211e-06 0)
(0.0002401970977 -2.945521006e-06 0)
(0.0002410365728 -3.37290748e-06 0)
(0.0002419015267 -3.793047451e-06 0)
(0.0002427931047 -4.204550184e-06 0)
(0.000243712214 -4.605906505e-06 0)
(0.0002446595272 -4.995518118e-06 0)
(0.0002456354766 -5.37168877e-06 0)
(0.0002466402487 -5.732613056e-06 0)
(0.0002476737842 -6.076380932e-06 0)
(0.0002487357781 -6.400999303e-06 0)
(0.0002498256752 -6.70442968e-06 0)
(0.000250942661 -6.984620993e-06 0)
(0.0002520856539 -7.239528164e-06 0)
(0.0002532533076 -7.467128716e-06 0)
(0.00025444402 -7.665446078e-06 0)
(0.0002556559429 -7.832576077e-06 0)
(0.0002568869934 -7.966711507e-06 0)
(0.0002581348682 -8.066163642e-06 0)
(0.0002593970614 -8.129381218e-06 0)
(0.0002186734353 2.974366555e-07 0)
(0.0002187792723 8.850764302e-07 0)
(0.0002190010716 1.447977134e-06 0)
(0.0002193375268 1.966928726e-06 0)
(0.0002197702521 2.427034869e-06 0)
(0.0002202816049 2.818668119e-06 0)
(0.0002208579307 3.136117643e-06 0)
(0.0002214868608 3.376458508e-06 0)
(0.0002221560002 3.539149718e-06 0)
(0.0002228535824 3.62584617e-06 0)
(0.0002235693727 3.640028873e-06 0)
(0.0002242950032 3.586482456e-06 0)
(0.0002250238953 3.47080933e-06 0)
(0.0002257510993 3.299061399e-06 0)
(0.0002264731673 3.07745422e-06 0)
(0.000227188027 2.812124977e-06 0)
(0.0002278948181 2.508936838e-06 0)
(0.0002285936992 2.173342285e-06 0)
(0.0002292856517 1.810303547e-06 0)
(0.000229972301 1.424253537e-06 0)
(0.0002306557539 1.019099383e-06 0)
(0.0002313384589 5.982376064e-07 0)
(0.0002320230914 1.64588564e-07 0)
(0.0002327124295 -2.79331883e-07 0)
(0.00023340928 -7.313598841e-07 0)
(0.0002341164394 -1.18960086e-06 0)
(0.0002348366221 -1.652370407e-06 0)
(0.0002355724218 -2.118143022e-06 0)
(0.0002363262905 -2.585495364e-06 0)
(0.0002371005179 -3.053052713e-06 0)
(0.0002378972133 -3.519445362e-06 0)
(0.0002387182938 -3.983264913e-06 0)
(0.0002395654851 -4.44303678e-06 0)
(0.000240440304 -4.897201485e-06 0)
(0.0002413440308 -5.344091381e-06 0)
(0.0002422777093 -5.781919562e-06 0)
(0.0002432421506 -6.208777733e-06 0)
(0.0002442379219 -6.622638458e-06 0)
(0.00024526533 -7.021362326e-06 0)
(0.0002463244094 -7.402712025e-06 0)
(0.0002474149149 -7.764372764e-06 0)
(0.0002485363164 -8.103977235e-06 0)
(0.0002496877933 -8.419132079e-06 0)
(0.0002508682288 -8.70744363e-06 0)
(0.0002520762088 -8.96654473e-06 0)
(0.0002533100267 -9.194124258e-06 0)
(0.0002545676937 -9.387957689e-06 0)
(0.0002558469532 -9.54593606e-06 0)
(0.0002571452988 -9.666092071e-06 0)
(0.0002584599969 -9.746622956e-06 0)
(0.0002186710907 2.313811434e-07 0)
(0.0002187583866 6.886459616e-07 0)
(0.0002189415418 1.127140876e-06 0)
(0.0002192204504 1.532131377e-06 0)
(0.000219581513 1.891723501e-06 0)
(0.0002200117657 2.197566126e-06 0)
(0.0002205011238 2.444062144e-06 0)
(0.0002210401118 2.627759193e-06 0)
(0.0002216189481 2.747142261e-06 0)
(0.0002222281932 2.802497477e-06 0)
(0.0002228594901 2.795648562e-06 0)
(0.0002235058241 2.729594534e-06 0)
(0.0002241614991 2.608151915e-06 0)
(0.0002248220683 2.435657226e-06 0)
(0.0002254842791 2.216726193e-06 0)
(0.0002261459998 1.956051177e-06 0)
(0.0002268061115 1.658235516e-06 0)
(0.0002274643756 1.327664842e-06 0)
(0.00022812129 9.6843199e-07 0)
(0.0002287779611 5.842815626e-07 0)
(0.0002294359778 1.785819773e-07 0)
(0.0002300972786 -2.456540241e-07 0)
(0.0002307640591 -6.85747174e-07 0)
(0.0002314387027 -1.139319533e-06 0)
(0.000232123697 -1.604244433e-06 0)
(0.0002328215671 -2.078615176e-06 0)
(0.0002335348242 -2.560689493e-06 0)
(0.0002342659291 -3.048834064e-06 0)
(0.0002350172632 -3.541476842e-06 0)
(0.0002357911004 -4.03706338e-06 0)
(0.0002365895834 -4.53401812e-06 0)
(0.0002374147027 -5.030708659e-06 0)
(0.0002382682807 -5.525418252e-06 0)
(0.0002391519511 -6.016330405e-06 0)
(0.0002400671377 -6.501507132e-06 0)
(0.0002410150398 -6.978872092e-06 0)
(0.0002419966194 -7.446208507e-06 0)
(0.0002430125827 -7.901165146e-06 0)
(0.0002440633602 -8.341265275e-06 0)
(0.0002451490898 -8.763919904e-06 0)
(0.000246269603 -9.1664469e-06 0)
(0.0002474244129 -9.54609626e-06 0)
(0.0002486127041 -9.900080605e-06 0)
(0.0002498333247 -1.022560858e-05 0)
(0.0002510847836 -1.051991965e-05 0)
(0.0002523652555 -1.078031987e-05 0)
(0.0002536725915 -1.100421808e-05 0)
(0.0002550043361 -1.118916088e-05 0)
(0.0002563577497 -1.13328647e-05 0)
(0.0002577298356 -1.143324379e-05 0)
(0.0002186692844 1.765777447e-07 0)
(0.0002187423216 5.254595521e-07 0)
(0.0002188957008 8.597432328e-07 0)
(0.0002191299558 1.167862457e-06 0)
(0.0002194347343 1.44019686e-06 0)
(0.0002198003132 1.66958196e-06 0)
(0.0002202192195 1.850808787e-06 0)
(0.0002206842536 1.980298363e-06 0)
(0.0002211877613 2.056021012e-06 0)
(0.000221722217 2.077408192e-06 0)
(0.000222280845 2.045156811e-06 0)
(0.0002228578346 1.960971639e-06 0)
(0.0002234483442 1.827310204e-06 0)
(0.0002240484844 1.647158284e-06 0)
(0.0002246553096 1.423839008e-06 0)
(0.0002252667857 1.160841465e-06 0)
(0.0002258817184 8.6169478e-07 0)
(0.0002264996723 5.298452816e-07 0)
(0.0002271208711 1.685748333e-07 0)
(0.0002277460749 -2.190345708e-07 0)
(0.0002283765021 -6.301340946e-07 0)
(0.000229013759 -1.062111593e-06 0)
(0.0002296597373 -1.512578074e-06 0)
(0.0002303165328 -1.979359955e-06 0)
(0.0002309863878 -2.460466917e-06 0)
(0.0002316716387 -2.954053877e-06 0)
(0.0002323746679 -3.458378585e-06 0)
(0.0002330978628 -3.971759431e-06 0)
(0.0002338435804 -4.492536228e-06 0)
(0.0002346141166 -5.019032819e-06 0)
(0.0002354116774 -5.549521902e-06 0)
(0.0002362383538 -6.082193009e-06 0)
(0.0002370960964 -6.615125455e-06 0)
(0.0002379866915 -7.146267151e-06 0)
(0.0002389117346 -7.673416306e-06 0)
(0.0002398726054 -8.194208876e-06 0)
(0.0002408704436 -8.706115128e-06 0)
(0.0002419061236 -9.206443407e-06 0)
(0.0002429802285 -9.692349327e-06 0)
(0.0002440930259 -1.01608512e-05 0)
(0.000245244445 -1.060885269e-05 0)
(0.0002464340576 -1.103317243e-05 0)
(0.000247661062 -1.143057948e-05 0)
(0.0002489242724 -1.179783284e-05 0)
(0.0002502221145 -1.213172371e-05 0)
(0.0002515526293 -1.242911961e-05 0)
(0.0002529134841 -1.268700909e-05 0)
(0.0002543019927 -1.290254513e-05 0)
(0.0002557151422 -1.307308514e-05 0)
(0.0002571496275 -1.319622561e-05 0)
(0.0002186678594 1.305146976e-07 0)
(0.0002187296601 3.881458231e-07 0)
(0.0002188595388 6.341554433e-07 0)
(0.0002190583646 8.592674685e-07 0)
(0.000219318081 1.055594312e-06 0)
(0.0002196312726 1.217008887e-06 0)
(0.0002199923769 1.338789483e-06 0)
(0.0002203959382 1.417432978e-06 0)
(0.0002208359854 1.450645258e-06 0)
(0.0002213065353 1.437298663e-06 0)
(0.0002218021214 1.377297465e-06 0)
(0.0002223179787 1.271397887e-06 0)
(0.0002228500598 1.121028477e-06 0)
(0.0002233950455 9.281213139e-07 0)
(0.0002239503554 6.949759033e-07 0)
(0.0002245141549 4.241030093e-07 0)
(0.0002250853123 1.181111709e-07 0)
(0.0002256633172 -2.203639767e-07 0)
(0.0002262482411 -5.887447847e-07 0)
(0.0002268406741 -9.845544406e-07 0)
(0.0002274416371 -1.405438171e-06 0)
(0.0002280525082 -1.849191796e-06 0)
(0.0002286749607 -2.313762018e-06 0)
(0.0002293109042 -2.797227029e-06 0)
(0.0002299624318 -3.29777335e-06 0)
(0.000230631771 -3.813668362e-06 0)
(0.0002313212387 -4.343228986e-06 0)
(0.0002320332012 -4.884787477e-06 0)
(0.0002327700389 -5.436656236e-06 0)
(0.0002335341135 -5.997093042e-06 0)
(0.000234327737 -6.56426775e-06 0)
(0.0002351531414 -7.136231567e-06 0)
(0.0002360124482 -7.710889969e-06 0)
(0.0002369076372 -8.285980315e-06 0)
(0.0002378405148 -8.859054353e-06 0)
(0.00023881268 -9.427466213e-06 0)
(0.0002398254913 -9.988367448e-06 0)
(0.0002408800327 -1.053870974e-05 0)
(0.000241977079 -1.107525519e-05 0)
(0.0002431170618 -1.15945944e-05 0)
(0.0002443000383 -1.209317272e-05 0)
(0.0002455256631 -1.256732453e-05 0)
(0.000246793166 -1.301331462e-05 0)
(0.0002481013352 -1.342738578e-05 0)
(0.0002494485098 -1.380581117e-05 0)
(0.0002508325809 -1.41449496e-05 0)
(0.0002522510041 -1.444130188e-05 0)
(0.0002537008222 -1.469156555e-05 0)
(0.0002551786992 -1.489268547e-05 0)
(0.0002566809628 -1.504189741e-05 0)
(0.0002186667089 9.139922831e-08 0)
(0.0002187194541 2.714340594e-07 0)
(0.0002188303791 4.42015763e-07 0)
(0.000219000517 5.955583063e-07 0)
(0.0002192234833 7.254952895e-07 0)
(0.0002194935369 8.265536018e-07 0)
(0.0002198065134 8.944805315e-07 0)
(0.0002201582799 9.259281345e-07 0)
(0.0002205441856 9.18489603e-07 0)
(0.0002209594876 8.706859215e-07 0)
(0.000221399801 7.818745758e-07 0)
(0.0002218612568 6.521259355e-07 0)
(0.0002223405191 4.820967791e-07 0)
(0.0002228348218 2.729093732e-07 0)
(0.0002233419787 2.602004368e-08 0)
(0.0002238603747 -2.568575287e-07 0)
(0.0002243889987 -5.738686947e-07 0)
(0.0002249274035 -9.230793409e-07 0)
(0.0002254756352 -1.302533413e-06 0)
(0.0002260341926 -1.710310151e-06 0)
(0.0002266039784 -2.144551428e-06 0)
(0.0002271862472 -2.603471402e-06 0)
(0.0002277825566 -3.085357951e-06 0)
(0.000228394718 -3.588563844e-06 0)
(0.0002290247511 -4.11149121e-06 0)
(0.0002296748409 -4.652569835e-06 0)
(0.0002303472991 -5.210230119e-06 0)
(0.0002310445267 -5.782872168e-06 0)
(0.0002317689805 -6.368832951e-06 0)
(0.0002325231392 -6.966353085e-06 0)
(0.00023330947 -7.573544344e-06 0)
(0.0002341303951 -8.188358867e-06 0)
(0.0002349882565 -8.808561151e-06 0)
(0.0002358852791 -9.431703952e-06 0)
(0.0002368235317 -1.005510899e-05 0)
(0.0002378048865 -1.067585338e-05 0)
(0.0002388309754 -1.129076318e-05 0)
(0.0002399031465 -1.189641523e-05 0)
(0.0002410224187 -1.24891478e-05 0)
(0.0002421894367 -1.30650808e-05 0)
(0.0002434044291 -1.362014577e-05 0)
(0.0002446671697 -1.415012596e-05 0)
(0.0002459769447 -1.465070594e-05 0)
(0.0002473325292 -1.51175298e-05 0)
(0.0002487321729 -1.554626627e-05 0)
(0.0002501735988 -1.593267841e-05 0)
(0.0002516540157 -1.627269525e-05 0)
(0.0002531701456 -1.656248178e-05 0)
(0.0002547182646 -1.679850395e-05 0)
(0.0002562942578 -1.697758466e-05 0)
(0.0002186657582 5.792820976e-08 0)
(0.0002187110447 1.714886077e-07 0)
(0.0002188063652 2.771996469e-07 0)
(0.0002189528116 3.687357937e-07 0)
(0.0002191452439 4.405406924e-07 0)
(0.0002193791573 4.880306631e-07 0)
(0.0002196514162 5.073743155e-07 0)
(0.000219958896 4.953957417e-07 0)
(0.0002202979863 4.496618989e-07 0)
(0.0002206649351 3.684793815e-07 0)
(0.0002210562392 2.508278848e-07 0)
(0.0002214687865 9.627703632e-08 0)
(0.0002218998725 -9.510524592e-08 0)
(0.0002223472044 -3.228381002e-07 0)
(0.0002228089647 -5.86130424e-07 0)
(0.0002232838431 -8.839336915e-07 0)
(0.0002237710039 -1.21501982e-06 0)
(0.0002242700819 -1.578064084e-06 0)
(0.0002247811556 -1.971686206e-06 0)
(0.0002253047167 -2.394483919e-06 0)
(0.0002258416363 -2.845057909e-06 0)
(0.0002263931273 -3.322024713e-06 0)
(0.0002269607052 -3.824020567e-06 0)
(0.0002275461507 -4.349696295e-06 0)
(0.0002281514733 -4.897703957e-06 0)
(0.0002287788763 -5.466676776e-06 0)
(0.0002294307235 -6.055203795e-06 0)
(0.0002301095062 -6.66180062e-06 0)
(0.0002308178108 -7.284877565e-06 0)
(0.0002315582858 -7.922706392e-06 0)
(0.0002323336074 -8.57338675e-06 0)
(0.0002331464436 -9.234813415e-06 0)
(0.0002339994149 -9.904645536e-06 0)
(0.0002348950528 -1.058027919e-05 0)
(0.0002358357539 -1.125882455e-05 0)
(0.0002368237303 -1.193708904e-05 0)
(0.0002378609572 -1.261156808e-05 0)
(0.0002389491171 -1.32784448e-05 0)
(0.000240089542 -1.393360015e-05 0)
(0.0002412831557 -1.457263448e-05 0)
(0.0002425304175 -1.51909015e-05 0)
(0.0002438312693 -1.578355509e-05 0)
(0.000245185091 -1.634560885e-05 0)
(0.0002465906645 -1.687200735e-05 0)
(0.0002480461516 -1.735770747e-05 0)
(0.0002495490877 -1.779776677e-05 0)
(0.0002510963935 -1.818743555e-05 0)
(0.0002526844071 -1.85222478e-05 0)
(0.0002543089346 -1.8798106e-05 0)
(0.0002559653206 -1.90113545e-05 0)
(0.0002186649571 2.910749337e-08 0)
(0.0002187039771 8.541602903e-08 0)
(0.0002187861899 1.351021627e-07 0)
(0.0002189126853 1.72762352e-07 0)
(0.000219079277 1.936035205e-07 0)
(0.0002192823942 1.93591977e-07 0)
(0.0002195196477 1.692505578e-07 0)
(0.0002197886698 1.176242134e-07 0)
(0.0002200866815 3.628532519e-08 0)
(0.0002204107257 -7.661704145e-08 0)
(0.0002207580163 -2.223758965e-07 0)
(0.0002211260649 -4.017943592e-07 0)
(0.0002215126962 -6.152561174e-07 0)
(0.0002219160704 -8.627915872e-07 0)
(0.0002223347284 -1.14412614e-06 0)
(0.000222767619 -1.458766332e-06 0)
(0.0002232140984 -1.806044905e-06 0)
(0.0002236739304 -2.185170563e-06 0)
(0.0002241472763 -2.595267364e-06 0)
(0.0002246346757 -3.035404288e-06 0)
(0.0002251370238 -3.504616717e-06 0)
(0.0002256555457 -4.001918362e-06 0)
(0.0002261917699 -4.526303875e-06 0)
(0.0002267475007 -5.07674306e-06 0)
(0.0002273247914 -5.652167586e-06 0)
(0.0002279259164 -6.25145135e-06 0)
(0.0002285533436 -6.873385483e-06 0)
(0.0002292097057 -7.516648957e-06 0)
(0.0002298977711 -8.179775724e-06 0)
(0.0002306204125 -8.861119453e-06 0)
(0.0002313805723 -9.558816959e-06 0)
(0.000232181226 -1.027075153e-05 0)
(0.0002330253397 -1.099451742e-05 0)
(0.0002339158234 -1.17273871e-05 0)
(0.0002348554791 -1.246628269e-05 0)
(0.0002358469418 -1.32077536e-05 0)
(0.0002368926168 -1.39479621e-05 0)
(0.0002379946104 -1.468267904e-05 0)
(0.0002391546579 -1.540729167e-05 0)
(0.0002403740486 -1.611682535e-05 0)
(0.0002416535521 -1.680598097e-05 0)
(0.0002429933479 -1.746918887e-05 0)
(0.0002443929622 -1.810067993e-05 0)
(0.0002458512166 -1.869457287e-05 0)
(0.0002473661934 -1.924497609e-05 0)
(0.0002489352204 -1.974610062e-05 0)
(0.0002505548809 -2.019237953e-05 0)
(0.0002522210499 -2.057858757e-05 0)
(0.0002539289578 -2.089995377e-05 0)
(0.0002556732805 -2.115225942e-05 0)
(0.0002186642932 4.197102278e-09 0)
(0.000218698019 1.103171e-08 0)
(0.0002187690321 1.22251399e-08 0)