/*--------------------------------*- C++ -*----------------------------------*\
| =========                 |                                                 |
| \\      /  F ield         | foam-extend: Open Source CFD                    |
|  \\    /   O peration     | Version:     4.1                                |
|   \\  /    A nd           | Web:         http://www.foam-extend.org         |
|    \\/     M anipulation  |                                                 |
\*---------------------------------------------------------------------------*/
FoamFile
{
    version     2.0;
    format      ascii;
    class       volVectorField;
    location    "20000";
    object      vorticity;
}
// * * * * * * * * * * * * * * * * * * * * * * * * * * * * * * * * * * * * * //

dimensions      [0 0 -1 0 0 0 0];

internalField   nonuniform List<vector> 
15920
(
(0 -0 -0.008257101948)
(0 -0 -0.008406151986)
(0 -0 -0.008450573227)
(0 -0 -0.008326336995)
(0 -0 -0.008116780478)
(0 -0 -0.007880005652)
(0 -0 -0.007626986311)
(0 -0 -0.007358996324)
(0 -0 -0.007084549996)
(0 -0 -0.006814548355)
(0 -0 -0.006556604115)
(0 -0 -0.006314898893)
(0 -0 -0.006091797529)
(0 -0 -0.005888570294)
(0 -0 -0.005705486212)
(0 -0 -0.005541973562)
(0 -0 -0.005396911814)
(0 -0 -0.005268888886)
(0 -0 -0.00515636849)
(0 -0 -0.005057797433)
(0 -0 -0.004971679191)
(0 -0 -0.004896621261)
(0 -0 -0.004831360178)
(0 -0 -0.004774769976)
(0 -0 -0.004725859914)
(0 -0 -0.004683759851)
(0 -0 -0.0046477012)
(0 -0 -0.004617050924)
(0 -0 -0.004591302832)
(0 -0 -0.004570077168)
(0 -0 -0.004552842161)
(0 -0 -0.004539161935)
(0 -0 -0.004528754793)
(0 -0 -0.00452137927)
(0 -0 -0.004516786577)
(0 -0 -0.004514735672)
(0 -0 -0.004515005192)
(0 -0 -0.004517387388)
(0 -0 -0.00452168482)
(0 -0 -0.004527697888)
(0 -0 -0.004535237019)
(0 -0 -0.004544103248)
(0 -0 -0.004554091424)
(0 -0 -0.004564998319)
(0 -0 -0.004576622185)
(0 -0 -0.004588760047)
(0 -0 -0.004601206956)
(0 -0 -0.004613756318)
(0 -0 -0.004626200236)
(0 -0 -0.004638329816)
(0 -0 0.0003530120247)
(0 -0 -1.03239411e-05)
(0 -0 -0.0003977956511)
(0 -0 -0.0007982666334)
(0 -0 -0.001194927837)
(0 -0 -0.001571575953)
(0 -0 -0.001919120606)
(0 -0 -0.002232557608)
(0 -0 -0.002507994548)
(0 -0 -0.002743273208)
(0 -0 -0.002938828703)
(0 -0 -0.003097200102)
(0 -0 -0.003222036081)
(0 -0 -0.00331743388)
(0 -0 -0.003387612996)
(0 -0 -0.003436688497)
(0 -0 -0.003468483156)
(0 -0 -0.003486410862)
(0 -0 -0.003493434244)
(0 -0 -0.00349206895)
(0 -0 -0.003484411158)
(0 -0 -0.003472177274)
(0 -0 -0.003456750118)
(0 -0 -0.003439226843)
(0 -0 -0.003420465294)
(0 -0 -0.00340112878)
(0 -0 -0.003381724644)
(0 -0 -0.003362619471)
(0 -0 -0.003344072856)
(0 -0 -0.003326243796)
(0 -0 -0.003309299137)
(0 -0 -0.003293331568)
(0 -0 -0.003278400411)
(0 -0 -0.003264541847)
(0 -0 -0.003251774506)
(0 -0 -0.003240101326)
(0 -0 -0.003229510679)
(0 -0 -0.003219994576)
(0 -0 -0.00321149855)
(0 -0 -0.003203972613)
(0 -0 -0.003197406273)
(0 -0 -0.003191791196)
(0 -0 -0.003187111432)
(0 -0 -0.003183347382)
(0 -0 -0.003180478352)
(0 -0 -0.003178482451)
(0 -0 -0.003177336113)
(0 -0 -0.0031770139)
(0 -0 -0.003177488431)
(0 -0 -0.003178730275)
(0 -0 0.000172825672)
(0 -0 0.0002515430508)
(0 -0 0.0003151218514)
(0 -0 0.0003426602858)
(0 -0 0.0003285664995)
(0 -0 0.0002751203323)
(0 -0 0.0001888428972)
(0 -0 7.764967166e-05)
(0 -0 -5.056597954e-05)
(0 -0 -0.0001885535336)
(0 -0 -0.0003301185621)
(0 -0 -0.0004703569078)
(0 -0 -0.0006056569219)
(0 -0 -0.0007335512037)
(0 -0 -0.0008525238008)
(0 -0 -0.0009618131508)
(0 -0 -0.00106122343)
(0 -0 -0.001150956807)
(0 -0 -0.001231476017)
(0 -0 -0.001303398685)
(0 -0 -0.001367419672)
(0 -0 -0.001424256451)
(0 -0 -0.001474612817)
(0 -0 -0.0015191567)
(0 -0 -0.001558507495)
(0 -0 -0.001593230896)
(0 -0 -0.001623838726)
(0 -0 -0.001650786493)
(0 -0 -0.001674483259)
(0 -0 -0.001695292655)
(0 -0 -0.001713573923)
(0 -0 -0.001729602378)
(0 -0 -0.001743633825)
(0 -0 -0.001755902872)
(0 -0 -0.001766618715)
(0 -0 -0.001775971856)
(0 -0 -0.00178412612)
(0 -0 -0.001791188121)
(0 -0 -0.001797329952)
(0 -0 -0.001802702139)
(0 -0 -0.001807440244)
(0 -0 -0.001811667353)
(0 -0 -0.001815496941)
(0 -0 -0.001819035385)
(0 -0 -0.001822382888)
(0 -0 -0.001825633656)
(0 -0 -0.001828876182)
(0 -0 -0.001832193671)
(0 -0 -0.001835664419)
(0 -0 -0.001839362112)
(0 -0 0.0001458596249)
(0 -0 0.0001486793086)
(0 -0 0.0001594208035)
(0 -0 0.0001783093043)
(0 -0 0.000202785436)
(0 -0 0.0002287038874)
(0 -0 0.00025165681)
(0 -0 0.0002681311205)
(0 -0 0.0002759184262)
(0 -0 0.0002740553792)
(0 -0 0.0002626061135)
(0 -0 0.0002423817071)
(0 -0 0.0002146417581)
(0 -0 0.0001808397069)
(0 -0 0.0001424403135)
(0 -0 0.0001008038067)
(0 -0 5.712259883e-05)
(0 -0 1.239640055e-05)
(0 -0 -3.256693106e-05)
(0 -0 -7.713543527e-05)
(0 -0 -0.0001208298474)
(0 -0 -0.0001632983236)
(0 -0 -0.0002042921722)
(0 -0 -0.0002436442604)
(0 -0 -0.0002812506037)
(0 -0 -0.000317055429)
(0 -0 -0.0003510394187)
(0 -0 -0.0003832101757)
(0 -0 -0.0004135955899)
(0 -0 -0.0004422385282)
(0 -0 -0.0004691947671)
(0 -0 -0.0004945268379)
(0 -0 -0.0005183030514)
(0 -0 -0.0005405978843)
(0 -0 -0.0005614639663)
(0 -0 -0.000580973535)
(0 -0 -0.0005992220356)
(0 -0 -0.0006163380616)
(0 -0 -0.0006324281878)
(0 -0 -0.0006475744872)
(0 -0 -0.0006618510396)
(0 -0 -0.000675329374)
(0 -0 -0.0006880804993)
(0 -0 -0.0007001759469)
(0 -0 -0.0007116877989)
(0 -0 -0.0007226883811)
(0 -0 -0.0007332499482)
(0 -0 -0.0007434444345)
(0 -0 -0.0007533432355)
(0 -0 -0.0007630169951)
(0 -0 0.0001015664497)
(0 -0 0.0001025072619)
(0 -0 0.0001037329221)
(0 -0 0.0001057511572)
(0 -0 0.0001093032969)
(0 -0 0.0001149972797)
(0 -0 0.0001230372683)
(0 -0 0.0001331578881)
(0 -0 0.0001447201675)
(0 -0 0.0001568690859)
(0 -0 0.0001686987997)
(0 -0 0.0001793917862)
(0 -0 0.0001883054219)
(0 -0 0.0001950035965)
(0 -0 0.0001992492725)
(0 -0 0.000200975285)
(0 -0 0.0002002458963)
(0 -0 0.0001972176925)
(0 -0 0.0001921049984)
(0 -0 0.0001851521908)
(0 -0 0.0001766132122)
(0 -0 0.0001667374577)
(0 -0 0.0001557608031)
(0 -0 0.0001439005053)
(0 -0 0.0001313528474)
(0 -0 0.0001182926116)
(0 -0 0.0001048736685)
(0 -0 9.123020543e-05)
(0 -0 7.74782277e-05)
(0 -0 6.371712174e-05)
(0 -0 5.003120844e-05)
(0 -0 3.649171332e-05)
(0 -0 2.315833106e-05)
(0 -0 1.007945664e-05)
(0 -0 -2.731000079e-06)
(0 -0 -1.524426003e-05)
(0 -0 -2.744720425e-05)
(0 -0 -3.937090084e-05)
(0 -0 -5.097003302e-05)
(0 -0 -6.223558183e-05)
(0 -0 -7.316819044e-05)
(0 -0 -8.377377621e-05)
(0 -0 -9.40625145e-05)
(0 -0 -0.0001040481424)
(0 -0 -0.0001137475141)
(0 -0 -0.000123180321)
(0 -0 -0.0001323688388)
(0 -0 -0.0001413376719)
(0 -0 -0.0001501134955)
(0 -0 -0.0001587248056)
(0 -0 7.77404878e-05)
(0 -0 7.803848431e-05)
(0 -0 7.841947674e-05)
(0 -0 7.883819332e-05)
(0 -0 7.930151897e-05)
(0 -0 7.989144848e-05)
(0 -0 8.07557591e-05)
(0 -0 8.207042623e-05)
(0 -0 8.398989148e-05)
(0 -0 8.660534319e-05)
(0 -0 8.99239597e-05)
(0 -0 9.387083586e-05)
(0 -0 9.830684089e-05)
(0 -0 0.0001030533512)
(0 -0 0.000107916897)
(0 -0 0.0001127097319)
(0 -0 0.000117264427)
(0 -0 0.0001214422698)
(0 -0 0.0001251364301)
(0 -0 0.0001282713732)
(0 -0 0.0001307999527)
(0 -0 0.000132699321)
(0 -0 0.0001339664705)
(0 -0 0.0001346139309)
(0 -0 0.0001346659095)
(0 -0 0.000134155019)
(0 -0 0.0001331195154)
(0 -0 0.0001316014094)
(0 -0 0.0001296431965)
(0 -0 0.0001272873498)
(0 -0 0.000124578016)
(0 -0 0.0001215571831)
(0 -0 0.0001182645398)
(0 -0 0.000114741226)
(0 -0 0.0001109993217)
(0 -0 0.0001070642798)
(0 -0 0.000102977726)
(0 -0 9.88061801e-05)
(0 -0 9.457875114e-05)
(0 -0 9.031423307e-05)
(0 -0 8.60272491e-05)
(0 -0 8.172998547e-05)
(0 -0 7.743262077e-05)
(0 -0 7.314333321e-05)
(0 -0 6.886829344e-05)
(0 -0 6.461172085e-05)
(0 -0 6.037596599e-05)
(0 -0 5.616159519e-05)
(0 -0 5.196747388e-05)
(0 -0 4.779084769e-05)
(0 -0 6.079954087e-05)
(0 -0 6.098971266e-05)
(0 -0 6.124392719e-05)
(0 -0 6.154880188e-05)
(0 -0 6.188972185e-05)
(0 -0 6.224891946e-05)
(0 -0 6.261083427e-05)
(0 -0 6.297181037e-05)
(0 -0 6.334596175e-05)
(0 -0 6.376317246e-05)
(0 -0 6.426174916e-05)
(0 -0 6.487987295e-05)
(0 -0 6.564828957e-05)
(0 -0 6.658532338e-05)
(0 -0 6.769469156e-05)
(0 -0 6.896596374e-05)
(0 -0 7.037690927e-05)
(0 -0 7.189677661e-05)
(0 -0 7.348972671e-05)
(0 -0 7.51179318e-05)
(0 -0 7.674409123e-05)
(0 -0 7.833328541e-05)
(0 -0 7.98541991e-05)
(0 -0 8.127982025e-05)
(0 -0 8.258769267e-05)
(0 -0 8.376003566e-05)
(0 -0 8.478276346e-05)
(0 -0 8.564570581e-05)
(0 -0 8.634418392e-05)
(0 -0 8.687700474e-05)
(0 -0 8.724434279e-05)
(0 -0 8.744800696e-05)
(0 -0 8.749093262e-05)
(0 -0 8.737637068e-05)
(0 -0 8.713428825e-05)
(0 -0 8.677572192e-05)
(0 -0 8.630776636e-05)
(0 -0 8.573784672e-05)
(0 -0 8.507371661e-05)
(0 -0 8.432317782e-05)
(0 -0 8.349392643e-05)
(0 -0 8.259339614e-05)
(0 -0 8.162868118e-05)
(0 -0 8.060647563e-05)
(0 -0 7.953301487e-05)
(0 -0 7.841402915e-05)
(0 -0 7.72547048e-05)
(0 -0 7.605964967e-05)
(0 -0 7.48328648e-05)
(0 -0 7.357772323e-05)
(0 -0 4.782524866e-05)
(0 -0 4.795865306e-05)
(0 -0 4.813458463e-05)
(0 -0 4.834701576e-05)
(0 -0 4.859215304e-05)
(0 -0 4.886518461e-05)
(0 -0 4.915885176e-05)
(0 -0 4.9464273e-05)
(0 -0 4.977281463e-05)
(0 -0 5.007768884e-05)
(0 -0 5.037498444e-05)
(0 -0 5.066423416e-05)
(0 -0 5.094838245e-05)
(0 -0 5.123302762e-05)
(0 -0 5.152516098e-05)
(0 -0 5.183182346e-05)
(0 -0 5.215899538e-05)
(0 -0 5.25108435e-05)
(0 -0 5.288933132e-05)
(0 -0 5.329414695e-05)
(0 -0 5.372287446e-05)
(0 -0 5.417132634e-05)
(0 -0 5.463393861e-05)
(0 -0 5.510424184e-05)
(0 -0 5.557499526e-05)
(0 -0 5.603860981e-05)
(0 -0 5.648854224e-05)
(0 -0 5.691836898e-05)
(0 -0 5.732313654e-05)
(0 -0 5.769914402e-05)
(0 -0 5.804145544e-05)
(0 -0 5.834669136e-05)
(0 -0 5.861203991e-05)
(0 -0 5.883546079e-05)
(0 -0 5.901608217e-05)
(0 -0 5.915370064e-05)
(0 -0 5.924854369e-05)
(0 -0 5.930124376e-05)
(0 -0 5.931281334e-05)
(0 -0 5.928461048e-05)
(0 -0 5.921830117e-05)
(0 -0 5.911579099e-05)
(0 -0 5.897917917e-05)
(0 -0 5.881072647e-05)
(0 -0 5.861281615e-05)
(0 -0 5.838791175e-05)
(0 -0 5.81385183e-05)
(0 -0 5.786714673e-05)
(0 -0 5.757627986e-05)
(0 -0 5.726834044e-05)
(0 -0 3.773732069e-05)
(0 -0 3.782873058e-05)
(0 -0 3.794762961e-05)
(0 -0 3.808992993e-05)
(0 -0 3.825347682e-05)
(0 -0 3.843624058e-05)
(0 -0 3.863558697e-05)
(0 -0 3.884831854e-05)
(0 -0 3.907092456e-05)
(0 -0 3.929968485e-05)
(0 -0 3.95307408e-05)
(0 -0 3.976031927e-05)
(0 -0 3.998507434e-05)
(0 -0 4.02023806e-05)
(0 -0 4.041047508e-05)
(0 -0 4.060845329e-05)
(0 -0 4.079616375e-05)
(0 -0 4.097403636e-05)
(0 -0 4.114287413e-05)
(0 -0 4.130364336e-05)
(0 -0 4.145727954e-05)
(0 -0 4.160457612e-05)
(0 -0 4.174589619e-05)
(0 -0 4.188127207e-05)
(0 -0 4.201080233e-05)
(0 -0 4.213417557e-05)
(0 -0 4.225130001e-05)
(0 -0 4.236194064e-05)
(0 -0 4.246390506e-05)
(0 -0 4.255435322e-05)
(0 -0 4.263202804e-05)
(0 -0 4.269610733e-05)
(0 -0 4.274586303e-05)
(0 -0 4.278070448e-05)
(0 -0 4.280016862e-05)
(0 -0 4.280391035e-05)
(0 -0 4.279173215e-05)
(0 -0 4.276360162e-05)
(0 -0 4.271965332e-05)
(0 -0 4.266018632e-05)
(0 -0 4.258565961e-05)
(0 -0 4.249668361e-05)
(0 -0 4.23940139e-05)
(0 -0 4.227854575e-05)
(0 -0 4.215130369e-05)
(0 -0 4.201342705e-05)
(0 -0 4.186615516e-05)
(0 -0 4.171081246e-05)
(0 -0 4.154879281e-05)
(0 -0 4.138154358e-05)
(0 -0 2.967202224e-05)
(0 -0 2.973782831e-05)
(0 -0 2.98217879e-05)
(0 -0 2.992088504e-05)
(0 -0 3.00336103e-05)
(0 -0 3.015858487e-05)
(0 -0 3.029411269e-05)
(0 -0 3.043825965e-05)
(0 -0 3.05890493e-05)
(0 -0 3.074452329e-05)
(0 -0 3.090271115e-05)
(0 -0 3.106162279e-05)
(0 -0 3.121929162e-05)
(0 -0 3.137383553e-05)
(0 -0 3.152350966e-05)
(0 -0 3.166674928e-05)
(0 -0 3.180220578e-05)
(0 -0 3.192877271e-05)
(0 -0 3.204558658e-05)
(0 -0 3.215203423e-05)
(0 -0 3.224760374e-05)
(0 -0 3.233186571e-05)
(0 -0 3.240479242e-05)
(0 -0 3.246647143e-05)
(0 -0 3.251719243e-05)
(0 -0 3.255735122e-05)
(0 -0 3.258648256e-05)
(0 -0 3.260410692e-05)
(0 -0 3.261012216e-05)
(0 -0 3.260447812e-05)
(0 -0 3.258714223e-05)
(0 -0 3.255811463e-05)
(0 -0 3.251742829e-05)
(0 -0 3.24651482e-05)
(0 -0 3.240138981e-05)
(0 -0 3.232632435e-05)
(0 -0 3.2240183e-05)
(0 -0 3.214326256e-05)
(0 -0 3.20359302e-05)
(0 -0 3.191862722e-05)
(0 -0 3.179187224e-05)
(0 -0 3.165626306e-05)
(0 -0 3.151247667e-05)
(0 -0 3.136126756e-05)
(0 -0 3.120346445e-05)
(0 -0 3.103996548e-05)
(0 -0 3.087173277e-05)
(0 -0 3.069978652e-05)
(0 -0 3.052519759e-05)
(0 -0 3.034907927e-05)
(0 -0 2.308369619e-05)
(0 -0 2.313300642e-05)
(0 -0 2.319455009e-05)
(0 -0 2.326598602e-05)
(0 -0 2.334622451e-05)
(0 -0 2.343430093e-05)
(0 -0 2.352904924e-05)
(0 -0 2.362914715e-05)
(0 -0 2.373323619e-05)
(0 -0 2.383996406e-05)
(0 -0 2.39479818e-05)
(0 -0 2.405595448e-05)
(0 -0 2.416258853e-05)
(0 -0 2.426665544e-05)
(0 -0 2.436700265e-05)
(0 -0 2.446255941e-05)
(0 -0 2.455233663e-05)
(0 -0 2.463545015e-05)
(0 -0 2.471103031e-05)
(0 -0 2.477827226e-05)
(0 -0 2.483664499e-05)
(0 -0 2.488576897e-05)
(0 -0 2.492544295e-05)
(0 -0 2.495550287e-05)
(0 -0 2.497545257e-05)
(0 -0 2.498488853e-05)
(0 -0 2.498361184e-05)
(0 -0 2.497149714e-05)
(0 -0 2.494846853e-05)
(0 -0 2.491449445e-05)
(0 -0 2.486958594e-05)
(0 -0 2.481379809e-05)
(0 -0 2.47472305e-05)
(0 -0 2.467002681e-05)
(0 -0 2.458238178e-05)
(0 -0 2.44845435e-05)
(0 -0 2.437681325e-05)
(0 -0 2.425954769e-05)
(0 -0 2.41331617e-05)
(0 -0 2.399813013e-05)
(0 -0 2.385498859e-05)
(0 -0 2.370433282e-05)
(0 -0 2.354681716e-05)
(0 -0 2.338315256e-05)
(0 -0 2.321410429e-05)
(0 -0 2.304048835e-05)
(0 -0 2.286316698e-05)
(0 -0 2.268304369e-05)
(0 -0 2.250105796e-05)
(0 -0 2.231817888e-05)
(0 -0 1.761555842e-05)
(0 -0 1.76536671e-05)
(0 -0 1.770013174e-05)
(0 -0 1.775305616e-05)
(0 -0 1.781162653e-05)
(0 -0 1.787515954e-05)
(0 -0 1.794284744e-05)
(0 -0 1.801377709e-05)
(0 -0 1.808699978e-05)
(0 -0 1.816155299e-05)
(0 -0 1.823646004e-05)
(0 -0 1.831074414e-05)
(0 -0 1.838345248e-05)
(0 -0 1.845367599e-05)
(0 -0 1.852055327e-05)
(0 -0 1.858329161e-05)
(0 -0 1.864107901e-05)
(0 -0 1.869316843e-05)
(0 -0 1.873898338e-05)
(0 -0 1.87780164e-05)
(0 -0 1.880988872e-05)
(0 -0 1.883430926e-05)
(0 -0 1.885075865e-05)
(0 -0 1.885874826e-05)
(0 -0 1.885795679e-05)
(0 -0 1.884813226e-05)
(0 -0 1.882907192e-05)
(0 -0 1.880061697e-05)
(0 -0 1.876265036e-05)
(0 -0 1.87150965e-05)
(0 -0 1.865792193e-05)
(0 -0 1.859113689e-05)
(0 -0 1.851479711e-05)
(0 -0 1.842900531e-05)
(0 -0 1.833391373e-05)
(0 -0 1.822972623e-05)
(0 -0 1.811669958e-05)
(0 -0 1.799514494e-05)
(0 -0 1.786542921e-05)
(0 -0 1.772797553e-05)
(0 -0 1.75832631e-05)
(0 -0 1.743182628e-05)
(0 -0 1.727425316e-05)
(0 -0 1.711118361e-05)
(0 -0 1.694330674e-05)
(0 -0 1.677135714e-05)
(0 -0 1.659611008e-05)
(0 -0 1.641837631e-05)
(0 -0 1.623899685e-05)
(0 -0 1.605883724e-05)
(0 -0 1.301802264e-05)
(0 -0 1.304836974e-05)
(0 -0 1.308447528e-05)
(0 -0 1.312474693e-05)
(0 -0 1.316855558e-05)
(0 -0 1.321540577e-05)
(0 -0 1.326472514e-05)
(0 -0 1.331586767e-05)
(0 -0 1.336815594e-05)
(0 -0 1.342089267e-05)
(0 -0 1.347336029e-05)
(0 -0 1.352483179e-05)
(0 -0 1.357458781e-05)
(0 -0 1.362193822e-05)
(0 -0 1.366616087e-05)
(0 -0 1.370660139e-05)
(0 -0 1.374271931e-05)
(0 -0 1.377397713e-05)
(0 -0 1.379995632e-05)
(0 -0 1.382031126e-05)
(0 -0 1.383454063e-05)
(0 -0 1.384213891e-05)
(0 -0 1.384273429e-05)
(0 -0 1.383601281e-05)
(0 -0 1.382170137e-05)
(0 -0 1.379956366e-05)
(0 -0 1.376939876e-05)
(0 -0 1.373104088e-05)
(0 -0 1.368435945e-05)
(0 -0 1.362925998e-05)
(0 -0 1.356568527e-05)
(0 -0 1.349361737e-05)
(0 -0 1.341307976e-05)
(0 -0 1.332413948e-05)
(0 -0 1.322690951e-05)
(0 -0 1.312155113e-05)
(0 -0 1.300827586e-05)
(0 -0 1.288734694e-05)
(0 -0 1.275908031e-05)
(0 -0 1.262384519e-05)
(0 -0 1.248206404e-05)
(0 -0 1.233421193e-05)
(0 -0 1.218081524e-05)
(0 -0 1.202244958e-05)
(0 -0 1.185973702e-05)
(0 -0 1.169334246e-05)
(0 -0 1.152396897e-05)
(0 -0 1.135235241e-05)
(0 -0 1.117925611e-05)
(0 -0 1.100546525e-05)
(0 -0 9.112855552e-06)
(0 -0 9.137722612e-06)
(0 -0 9.166579286e-06)
(0 -0 9.198047411e-06)
(0 -0 9.23162378e-06)
(0 -0 9.266938826e-06)
(0 -0 9.303577064e-06)
(0 -0 9.341070993e-06)
(0 -0 9.378926578e-06)
(0 -0 9.416628125e-06)
(0 -0 9.453643071e-06)
(0 -0 9.489399001e-06)
(0 -0 9.523331359e-06)
(0 -0 9.554904131e-06)
(0 -0 9.58364184e-06)
(0 -0 9.609016602e-06)
(0 -0 9.630622971e-06)
(0 -0 9.648088314e-06)
(0 -0 9.660938569e-06)
(0 -0 9.668698231e-06)
(0 -0 9.670984114e-06)
(0 -0 9.667454745e-06)
(0 -0 9.657799856e-06)
(0 -0 9.641738794e-06)
(0 -0 9.619019874e-06)
(0 -0 9.589420118e-06)
(0 -0 9.552745329e-06)
(0 -0 9.508830397e-06)
(0 -0 9.457539957e-06)
(0 -0 9.398769579e-06)
(0 -0 9.332447504e-06)
(0 -0 9.258536876e-06)
(0 -0 9.177038293e-06)
(0 -0 9.087992488e-06)
(0 -0 8.991482978e-06)
(0 -0 8.887638511e-06)
(0 -0 8.776635151e-06)
(0 -0 8.658697888e-06)
(0 -0 8.534101733e-06)
(0 -0 8.403172404e-06)
(0 -0 8.266286566e-06)
(0 -0 8.123871392e-06)
(0 -0 7.976403368e-06)
(0 -0 7.824406307e-06)
(0 -0 7.668448609e-06)
(0 -0 7.509139864e-06)
(0 -0 7.347126428e-06)
(0 -0 7.183085782e-06)
(0 -0 7.017720717e-06)
(0 -0 6.851753779e-06)
(0 -0 5.770456304e-06)
(0 -0 5.791324699e-06)
(0 -0 5.814964378e-06)
(0 -0 5.840160047e-06)
(0 -0 5.866497879e-06)
(0 -0 5.893694707e-06)
(0 -0 5.921441798e-06)
(0 -0 5.949391326e-06)
(0 -0 5.977171435e-06)
(0 -0 6.004388051e-06)
(0 -0 6.030634904e-06)
(0 -0 6.055510352e-06)
(0 -0 6.078579223e-06)
(0 -0 6.099398817e-06)
(0 -0 6.117615977e-06)
(0 -0 6.132878448e-06)
(0 -0 6.14474639e-06)
(0 -0 6.152803069e-06)
(0 -0 6.156682924e-06)
(0 -0 6.156045513e-06)
(0 -0 6.150571577e-06)
(0 -0 6.139963388e-06)
(0 -0 6.123944834e-06)
(0 -0 6.102261641e-06)
(0 -0 6.074681573e-06)
(0 -0 6.040994665e-06)
(0 -0 6.001013871e-06)
(0 -0 5.954576017e-06)
(0 -0 5.901543222e-06)
(0 -0 5.841804547e-06)
(0 -0 5.775278027e-06)
(0 -0 5.701913001e-06)
(0 -0 5.621692801e-06)
(0 -0 5.534637663e-06)
(0 -0 5.440807666e-06)
(0 -0 5.340305431e-06)
(0 -0 5.233278391e-06)
(0 -0 5.119920559e-06)
(0 -0 5.000473804e-06)
(0 -0 4.875228683e-06)
(0 -0 4.744524838e-06)
(0 -0 4.608750905e-06)
(0 -0 4.468343668e-06)
(0 -0 4.323786129e-06)
(0 -0 4.175604615e-06)
(0 -0 4.024365396e-06)
(0 -0 3.87067065e-06)
(0 -0 3.715152846e-06)
(0 -0 3.558467808e-06)
(0 -0 3.401288112e-06)
(0 -0 2.892388503e-06)
(0 -0 2.910379689e-06)
(0 -0 2.930320043e-06)
(0 -0 2.951101416e-06)
(0 -0 2.972370394e-06)
(0 -0 2.993903151e-06)
(0 -0 3.015463519e-06)
(0 -0 3.036796503e-06)
(0 -0 3.057626584e-06)
(0 -0 3.077657812e-06)
(0 -0 3.096555688e-06)
(0 -0 3.114007938e-06)
(0 -0 3.129708109e-06)
(0 -0 3.143341378e-06)
(0 -0 3.154530889e-06)
(0 -0 3.162935244e-06)
(0 -0 3.168228998e-06)
(0 -0 3.170096429e-06)
(0 -0 3.168233332e-06)
(0 -0 3.162348483e-06)
(0 -0 3.152164229e-06)
(0 -0 3.137417301e-06)
(0 -0 3.117859803e-06)
(0 -0 3.093260173e-06)
(0 -0 3.063404021e-06)
(0 -0 3.028094913e-06)
(0 -0 2.987155072e-06)
(0 -0 2.940426333e-06)
(0 -0 2.887771454e-06)
(0 -0 2.829075994e-06)
(0 -0 2.764250696e-06)
(0 -0 2.693234263e-06)
(0 -0 2.615996403e-06)
(0 -0 2.532540981e-06)
(0 -0 2.442909146e-06)
(0 -0 2.347182184e-06)
(0 -0 2.245483906e-06)
(0 -0 2.137982623e-06)
(0 -0 2.024892741e-06)
(0 -0 1.906475821e-06)
(0 -0 1.783041077e-06)
(0 -0 1.654945507e-06)
(0 -0 1.522593469e-06)
(0 -0 1.386435158e-06)
(0 -0 1.246963655e-06)
(0 -0 1.104710973e-06)
(0 -0 9.602438543e-07)
(0 -0 8.141586174e-07)
(0 -0 6.670739392e-07)
(0 -0 5.196227632e-07)
(0 -0 4.05066425e-07)
(0 -0 4.21246291e-07)
(0 -0 4.388524091e-07)
(0 -0 4.568092838e-07)
(0 -0 4.747994717e-07)
(0 -0 4.926444583e-07)
(0 -0 5.101595019e-07)
(0 -0 5.271435125e-07)
(0 -0 5.433926739e-07)
(0 -0 5.586881162e-07)
(0 -0 5.727968017e-07)
(0 -0 5.854444002e-07)
(0 -0 5.96358315e-07)
(0 -0 6.052677955e-07)
(0 -0 6.119010124e-07)
(0 -0 6.159851531e-07)
(0 -0 6.172498881e-07)
(0 -0 6.154297767e-07)
(0 -0 6.102657984e-07)
(0 -0 6.015068359e-07)
(0 -0 5.889105916e-07)
(0 -0 5.722444596e-07)
(0 -0 5.512867375e-07)
(0 -0 5.258277318e-07)
(0 -0 4.956706431e-07)
(0 -0 4.606324473e-07)
(0 -0 4.205447344e-07)
(0 -0 3.752549453e-07)
(0 -0 3.246279521e-07)
(0 -0 2.685481356e-07)
(0 -0 2.069219055e-07)
(0 -0 1.39680634e-07)
(0 -0 6.678391154e-08)
(0 -0 -1.177707386e-08)
(0 -0 -9.59762312e-08)
(0 -0 -1.857495791e-07)
(0 -0 -2.80992716e-07)
(0 -0 -3.815586211e-07)
(0 -0 -4.872556904e-07)
(0 -0 -5.978462239e-07)
(0 -0 -7.13045605e-07)
(0 -0 -8.325221349e-07)
(0 -0 -9.55897403e-07)
(0 -0 -1.082747319e-06)
(0 -0 -1.21260459e-06)
(0 -0 -1.344963049e-06)
(0 -0 -1.479282894e-06)
(0 -0 -1.614996281e-06)
(0 -0 -1.751514384e-06)
(0 -0 -1.888235906e-06)
(0 -0 -1.731737542e-06)
(0 -0 -1.717294357e-06)
(0 -0 -1.701829474e-06)
(0 -0 -1.686321354e-06)
(0 -0 -1.67104674e-06)
(0 -0 -1.656152526e-06)
(0 -0 -1.64177758e-06)
(0 -0 -1.628074879e-06)
(0 -0 -1.615208429e-06)
(0 -0 -1.603356752e-06)
(0 -0 -1.592714598e-06)
(0 -0 -1.583489746e-06)
(0 -0 -1.575897801e-06)
(0 -0 -1.570159175e-06)
(0 -0 -1.566497763e-06)
(0 -0 -1.565140082e-06)
(0 -0 -1.56631349e-06)
(0 -0 -1.570243576e-06)
(0 -0 -1.577152539e-06)
(0 -0 -1.587258059e-06)
(0 -0 -1.600772499e-06)
(0 -0 -1.617902069e-06)
(0 -0 -1.638845663e-06)
(0 -0 -1.663793683e-06)
(0 -0 -1.692926869e-06)
(0 -0 -1.726415357e-06)
(0 -0 -1.764417687e-06)
(0 -0 -1.807079616e-06)
(0 -0 -1.854532453e-06)
(0 -0 -1.90689092e-06)
(0 -0 -1.964250527e-06)
(0 -0 -2.026684491e-06)
(0 -0 -2.094240288e-06)
(0 -0 -2.16693609e-06)
(0 -0 -2.244757292e-06)
(0 -0 -2.327653368e-06)
(0 -0 -2.415535137e-06)
(0 -0 -2.508272338e-06)
(0 -0 -2.605691444e-06)
(0 -0 -2.707573737e-06)
(0 -0 -2.81365388e-06)
(0 -0 -2.923619497e-06)
(0 -0 -3.037111714e-06)
(0 -0 -3.153726256e-06)
(0 -0 -3.273015507e-06)
(0 -0 -3.394492601e-06)
(0 -0 -3.517637413e-06)
(0 -0 -3.641903303e-06)
(0 -0 -3.766724726e-06)
(0 -0 -3.891526443e-06)
(0 -0 -3.566045135e-06)
(0 -0 -3.552963709e-06)
(0 -0 -3.539153455e-06)
(0 -0 -3.525493537e-06)
(0 -0 -3.512223721e-06)
(0 -0 -3.499465446e-06)
(0 -0 -3.487329915e-06)
(0 -0 -3.475935392e-06)
(0 -0 -3.465409627e-06)
(0 -0 -3.455893567e-06)
(0 -0 -3.447542795e-06)
(0 -0 -3.440524455e-06)
(0 -0 -3.435013165e-06)
(0 -0 -3.431188785e-06)
(0 -0 -3.42923605e-06)
(0 -0 -3.42934371e-06)
(0 -0 -3.431703067e-06)
(0 -0 -3.43650578e-06)
(0 -0 -3.44394211e-06)
(0 -0 -3.454200118e-06)
(0 -0 -3.467465129e-06)
(0 -0 -3.483918907e-06)
(0 -0 -3.503738513e-06)
(0 -0 -3.527095126e-06)
(0 -0 -3.554152869e-06)
(0 -0 -3.585067856e-06)
(0 -0 -3.6199872e-06)
(0 -0 -3.659047822e-06)
(0 -0 -3.70237478e-06)
(0 -0 -3.750079053e-06)
(0 -0 -3.802254788e-06)
(0 -0 -3.858976085e-06)
(0 -0 -3.920293435e-06)
(0 -0 -3.98623009e-06)
(0 -0 -4.056778594e-06)
(0 -0 -4.131897486e-06)
(0 -0 -4.2115082e-06)
(0 -0 -4.295492311e-06)
(0 -0 -4.383689188e-06)
(0 -0 -4.475893883e-06)
(0 -0 -4.57185525e-06)
(0 -0 -4.67127499e-06)
(0 -0 -4.773808067e-06)
(0 -0 -4.879064082e-06)
(0 -0 -4.986609371e-06)
(0 -0 -5.095970895e-06)
(0 -0 -5.206642685e-06)
(0 -0 -5.318093715e-06)
(0 -0 -5.429776397e-06)
(0 -0 -5.541136925e-06)
(0 -0 -5.140264584e-06)
(0 -0 -5.127840733e-06)
(0 -0 -5.114817969e-06)
(0 -0 -5.102059273e-06)
(0 -0 -5.089788778e-06)
(0 -0 -5.078109465e-06)
(0 -0 -5.0671094e-06)
(0 -0 -5.056879771e-06)
(0 -0 -5.04751925e-06)
(0 -0 -5.039137757e-06)
(0 -0 -5.031858021e-06)
(0 -0 -5.025813222e-06)
(0 -0 -5.021143644e-06)
(0 -0 -5.017994964e-06)
(0 -0 -5.016518331e-06)
(0 -0 -5.016869899e-06)
(0 -0 -5.019209167e-06)
(0 -0 -5.023697237e-06)
(0 -0 -5.030495245e-06)
(0 -0 -5.039763695e-06)
(0 -0 -5.051662101e-06)
(0 -0 -5.066348248e-06)
(0 -0 -5.083977234e-06)
(0 -0 -5.104700209e-06)
(0 -0 -5.128663297e-06)
(0 -0 -5.1560066e-06)
(0 -0 -5.186863239e-06)
(0 -0 -5.221358183e-06)
(0 -0 -5.259606667e-06)
(0 -0 -5.301711996e-06)
(0 -0 -5.34776271e-06)
(0 -0 -5.397829229e-06)
(0 -0 -5.451960243e-06)
(0 -0 -5.510179085e-06)
(0 -0 -5.572480253e-06)
(0 -0 -5.638826036e-06)
(0 -0 -5.70914313e-06)
(0 -0 -5.783319482e-06)
(0 -0 -5.861201641e-06)
(0 -0 -5.942592552e-06)
(0 -0 -6.027249622e-06)
(0 -0 -6.114883273e-06)
(0 -0 -6.205156839e-06)
(0 -0 -6.297688151e-06)
(0 -0 -6.392052062e-06)
(0 -0 -6.487784093e-06)
(0 -0 -6.584386931e-06)
(0 -0 -6.681339636e-06)
(0 -0 -6.778108007e-06)
(0 -0 -6.874156752e-06)
(0 -0 -6.469923515e-06)
(0 -0 -6.458178647e-06)
(0 -0 -6.445898203e-06)
(0 -0 -6.433908099e-06)
(0 -0 -6.422416157e-06)
(0 -0 -6.411511386e-06)
(0 -0 -6.401265079e-06)
(0 -0 -6.391748589e-06)
(0 -0 -6.383038707e-06)
(0 -0 -6.375221826e-06)
(0 -0 -6.368395377e-06)
(0 -0 -6.362665943e-06)
(0 -0 -6.358146366e-06)
(0 -0 -6.354954745e-06)
(0 -0 -6.353214439e-06)
(0 -0 -6.353054102e-06)
(0 -0 -6.35460613e-06)
(0 -0 -6.35800493e-06)
(0 -0 -6.363385671e-06)
(0 -0 -6.370883828e-06)
(0 -0 -6.380634922e-06)
(0 -0 -6.392773911e-06)
(0 -0 -6.40743428e-06)
(0 -0 -6.424746842e-06)
(0 -0 -6.444838681e-06)
(0 -0 -6.467832274e-06)
(0 -0 -6.493844656e-06)
(0 -0 -6.522986306e-06)
(0 -0 -6.555359591e-06)
(0 -0 -6.591056532e-06)
(0 -0 -6.630155968e-06)
(0 -0 -6.67272023e-06)
(0 -0 -6.718791566e-06)
(0 -0 -6.768388473e-06)
(0 -0 -6.821502133e-06)
(0 -0 -6.878092964e-06)
(0 -0 -6.93808714e-06)
(0 -0 -7.001373164e-06)
(0 -0 -7.067798824e-06)
(0 -0 -7.137168872e-06)
(0 -0 -7.209243266e-06)
(0 -0 -7.283735525e-06)
(0 -0 -7.360311911e-06)
(0 -0 -7.438592846e-06)
(0 -0 -7.518156232e-06)
(0 -0 -7.598541434e-06)
(0 -0 -7.679255202e-06)
(0 -0 -7.75978146e-06)
(0 -0 -7.839594269e-06)
(0 -0 -7.918172126e-06)
(0 -0 -7.5744938e-06)
(0 -0 -7.563269002e-06)
(0 -0 -7.551527634e-06)
(0 -0 -7.540058734e-06)
(0 -0 -7.52905493e-06)
(0 -0 -7.518592986e-06)
(0 -0 -7.508729882e-06)
(0 -0 -7.499520206e-06)
(0 -0 -7.491022239e-06)
(0 -0 -7.483302386e-06)
(0 -0 -7.476436534e-06)
(0 -0 -7.470508349e-06)
(0 -0 -7.465606832e-06)
(0 -0 -7.461825752e-06)
(0 -0 -7.459263894e-06)
(0 -0 -7.458024943e-06)
(0 -0 -7.458216386e-06)
(0 -0 -7.4599478e-06)
(0 -0 -7.463329772e-06)
(0 -0 -7.468473606e-06)
(0 -0 -7.475491138e-06)
(0 -0 -7.484494292e-06)
(0 -0 -7.495594167e-06)
(0 -0 -7.508899898e-06)
(0 -0 -7.524517663e-06)
(0 -0 -7.542549918e-06)
(0 -0 -7.563094747e-06)
(0 -0 -7.58624483e-06)
(0 -0 -7.612085841e-06)
(0 -0 -7.640694187e-06)
(0 -0 -7.672134213e-06)
(0 -0 -7.706454993e-06)
(0 -0 -7.743686833e-06)
(0 -0 -7.783837616e-06)
(0 -0 -7.826889099e-06)
(0 -0 -7.872793255e-06)
(0 -0 -7.921468798e-06)
(0 -0 -7.972797821e-06)
(0 -0 -8.026622469e-06)
(0 -0 -8.082742207e-06)
(0 -0 -8.14091215e-06)
(0 -0 -8.200841894e-06)
(0 -0 -8.262194591e-06)
(0 -0 -8.324587664e-06)
(0 -0 -8.387596281e-06)
(0 -0 -8.450758035e-06)
(0 -0 -8.513579213e-06)
(0 -0 -8.575545093e-06)
(0 -0 -8.636132949e-06)
(0 -0 -8.694826937e-06)
(0 -0 -8.469108665e-06)
(0 -0 -8.458295895e-06)
(0 -0 -8.446946676e-06)
(0 -0 -8.435814589e-06)
(0 -0 -8.425079166e-06)
(0 -0 -8.414807096e-06)
(0 -0 -8.405043498e-06)
(0 -0 -8.395828946e-06)
(0 -0 -8.387206153e-06)
(0 -0 -8.379224473e-06)
(0 -0 -8.371941265e-06)
(0 -0 -8.365420221e-06)
(0 -0 -8.359729493e-06)
(0 -0 -8.354941017e-06)
(0 -0 -8.351131309e-06)
(0 -0 -8.348381175e-06)
(0 -0 -8.346774724e-06)
(0 -0 -8.346397884e-06)
(0 -0 -8.347337502e-06)
(0 -0 -8.349681071e-06)
(0 -0 -8.353516614e-06)
(0 -0 -8.358932299e-06)
(0 -0 -8.366015564e-06)
(0 -0 -8.374852063e-06)
(0 -0 -8.385524776e-06)
(0 -0 -8.398113387e-06)
(0 -0 -8.412693671e-06)
(0 -0 -8.429336564e-06)
(0 -0 -8.448106582e-06)
(0 -0 -8.469059582e-06)
(0 -0 -8.492239993e-06)
(0 -0 -8.517677694e-06)
(0 -0 -8.545384634e-06)
(0 -0 -8.575351201e-06)
(0 -0 -8.607542368e-06)
(0 -0 -8.641893817e-06)
(0 -0 -8.678308486e-06)
(0 -0 -8.716653449e-06)
(0 -0 -8.756756677e-06)
(0 -0 -8.798403904e-06)
(0 -0 -8.841336578e-06)
(0 -0 -8.885251345e-06)
(0 -0 -8.929800216e-06)
(0 -0 -8.974591388e-06)
(0 -0 -9.019191545e-06)
(0 -0 -9.06313005e-06)
(0 -0 -9.105907395e-06)
(0 -0 -9.147001173e-06)
(0 -0 -9.185875812e-06)
(0 -0 -9.222037729e-06)
(0 -0 -9.165784726e-06)
(0 -0 -9.155318104e-06)
(0 -0 -9.14426775e-06)
(0 -0 -9.133352166e-06)
(0 -0 -9.12273907e-06)
(0 -0 -9.112486453e-06)
(0 -0 -9.102629226e-06)
(0 -0 -9.093195906e-06)
(0 -0 -9.084215776e-06)
(0 -0 -9.075723447e-06)
(0 -0 -9.067760049e-06)
(0 -0 -9.060371643e-06)
(0 -0 -9.053607673e-06)
(0 -0 -9.047520456e-06)
(0 -0 -9.042165831e-06)
(0 -0 -9.03760324e-06)
(0 -0 -9.033894643e-06)
(0 -0 -9.031103132e-06)
(0 -0 -9.029292245e-06)
(0 -0 -9.028525719e-06)
(0 -0 -9.028867396e-06)
(0 -0 -9.030380803e-06)
(0 -0 -9.033128263e-06)
(0 -0 -9.037169965e-06)
(0 -0 -9.042563258e-06)
(0 -0 -9.049362105e-06)
(0 -0 -9.057616469e-06)
(0 -0 -9.067371347e-06)
(0 -0 -9.078665249e-06)
(0 -0 -9.091528043e-06)
(0 -0 -9.105978257e-06)
(0 -0 -9.122019988e-06)
(0 -0 -9.139639535e-06)
(0 -0 -9.15880179e-06)
(0 -0 -9.179446406e-06)
(0 -0 -9.20148386e-06)
(0 -0 -9.224791802e-06)
(0 -0 -9.249211946e-06)
(0 -0 -9.274547183e-06)
(0 -0 -9.300558742e-06)
(0 -0 -9.326964007e-06)
(0 -0 -9.353436325e-06)
(0 -0 -9.379606658e-06)
(0 -0 -9.405066901e-06)
(0 -0 -9.429369301e-06)
(0 -0 -9.452036542e-06)
(0 -0 -9.472557318e-06)
(0 -0 -9.490371806e-06)
(0 -0 -9.504934937e-06)
(0 -0 -9.515865103e-06)
(0 -0 -9.674447636e-06)
(0 -0 -9.664291611e-06)
(0 -0 -9.653486508e-06)
(0 -0 -9.642716224e-06)
(0 -0 -9.632137328e-06)
(0 -0 -9.621799975e-06)
(0 -0 -9.611730092e-06)
(0 -0 -9.601945689e-06)
(0 -0 -9.592464285e-06)
(0 -0 -9.583307508e-06)
(0 -0 -9.574502021e-06)
(0 -0 -9.56607814e-06)
(0 -0 -9.558068136e-06)
(0 -0 -9.550506329e-06)
(0 -0 -9.543429324e-06)
(0 -0 -9.536876224e-06)
(0 -0 -9.530887689e-06)
(0 -0 -9.525504651e-06)
(0 -0 -9.520767586e-06)
(0 -0 -9.516716357e-06)
(0 -0 -9.513390085e-06)
(0 -0 -9.510826714e-06)
(0 -0 -9.509062102e-06)
(0 -0 -9.508129134e-06)
(0 -0 -9.508057107e-06)
(0 -0 -9.508871263e-06)
(0 -0 -9.51059214e-06)
(0 -0 -9.513234509e-06)
(0 -0 -9.516805864e-06)
(0 -0 -9.521304369e-06)
(0 -0 -9.526716271e-06)
(0 -0 -9.533012762e-06)
(0 -0 -9.540146471e-06)
(0 -0 -9.54804788e-06)
(0 -0 -9.556621722e-06)
(0 -0 -9.565743223e-06)
(0 -0 -9.575254161e-06)
(0 -0 -9.584959334e-06)
(0 -0 -9.594623835e-06)
(0 -0 -9.603970777e-06)
(0 -0 -9.612679918e-06)
(0 -0 -9.620388179e-06)
(0 -0 -9.626694166e-06)
(0 -0 -9.631163104e-06)
(0 -0 -9.633328525e-06)
(0 -0 -9.632727213e-06)
(0 -0 -9.628797249e-06)
(0 -0 -9.621021099e-06)
(0 -0 -9.609057332e-06)
(0 -0 -9.59204111e-06)
(0 -0 -1.000361642e-05)