/*--------------------------------*- C++ -*----------------------------------*\
| =========                 |                                                 |
| \\      /  F ield         | foam-extend: Open Source CFD                    |
|  \\    /   O peration     | Version:     4.1                                |
|   \\  /    A nd           | Web:         http://www.foam-extend.org         |
|    \\/     M anipulation  |                                                 |
\*---------------------------------------------------------------------------*/
FoamFile
{
    version     2.0;
    format      ascii;
    class       volScalarField;
    location    "60000";
    object      p;
}
// * * * * * * * * * * * * * * * * * * * * * * * * * * * * * * * * * * * * * //

dimensions      [0 2 -2 0 0 0 0];

internalField   nonuniform List<scalar> 
15920
(
2.374826292e-08
2.092266262e-08
1.87295226e-08
1.760852679e-08
1.680768358e-08
1.598110275e-08
1.517626893e-08
1.447116226e-08
1.386915249e-08
1.334851486e-08
1.289817315e-08
1.251462525e-08
1.219279003e-08
1.192455626e-08
1.170088511e-08
1.15131456e-08
1.135339726e-08
1.121446416e-08
1.109006727e-08
1.097491231e-08
1.086467388e-08
1.075591008e-08
1.064595069e-08
1.053277958e-08
1.041491953e-08
1.029132375e-08
1.016128336e-08
1.002439011e-08
9.880390896e-09
9.72920505e-09
9.57053315e-09
9.404758131e-09
9.231916165e-09
9.052009195e-09
8.865134543e-09
8.671436524e-09
8.471067329e-09
8.264186737e-09
8.050973501e-09
7.831600405e-09
7.60624712e-09
7.375118747e-09
7.138442666e-09
6.896464316e-09
6.649451435e-09
6.397698723e-09
6.141529121e-09
5.881293958e-09
5.617373399e-09
5.350176894e-09
1.845166922e-08
1.810049446e-08
1.7531201e-08
1.700051995e-08
1.648665478e-08
1.590883587e-08
1.52926763e-08
1.469365166e-08
1.413758877e-08
1.363062949e-08
1.31765622e-08
1.27788091e-08
1.243699833e-08
1.214646115e-08
1.190015634e-08
1.169046804e-08
1.151000729e-08
1.135191382e-08
1.121006099e-08
1.107919283e-08
1.095495088e-08
1.083381532e-08
1.071300858e-08
1.059038939e-08
1.046434848e-08
1.033369155e-08
1.01975204e-08
1.005516082e-08
9.906302725e-09
9.750974511e-09
9.589522717e-09
9.420954085e-09
9.245349683e-09
9.062990586e-09
8.87398906e-09
8.678399889e-09
8.476309773e-09
8.267859198e-09
8.053266196e-09
7.832568592e-09
7.605930598e-09
7.373616291e-09
7.135863517e-09
6.892895646e-09
6.644965332e-09
6.392363464e-09
6.135411928e-09
5.874460575e-09
5.609888463e-09
5.342105041e-09
1.793225268e-08
1.776879278e-08
1.732610608e-08
1.676540961e-08
1.622383032e-08
1.570444841e-08
1.518774274e-08
1.468517015e-08
1.421399443e-08
1.37807043e-08
1.338570561e-08
1.302903023e-08
1.271017966e-08
1.242696564e-08
1.217586286e-08
1.195277469e-08
1.175345743e-08
1.157366536e-08
1.140927728e-08
1.125644567e-08
1.111170954e-08
1.097204703e-08
1.083488343e-08
1.069807262e-08
1.055986105e-08
1.041885811e-08
1.027398828e-08
1.012444843e-08
9.969693845e-09
9.809353458e-09
9.643080705e-09
9.470417403e-09
9.291280888e-09
9.105726593e-09
8.913749424e-09
8.715340715e-09
8.510588119e-09
8.299634459e-09
8.082673299e-09
7.859494288e-09
7.630188146e-09
7.395079922e-09
7.154439209e-09
6.908509967e-09
6.657562813e-09
6.401901895e-09
6.141860588e-09
5.877801344e-09
5.610116011e-09
5.339227094e-09
1.694548805e-08
1.680250188e-08
1.651816842e-08
1.615738853e-08
1.578044227e-08
1.539900362e-08
1.50068674e-08
1.461101025e-08
1.422597684e-08
1.386108778e-08
1.35196273e-08
1.32029385e-08
1.291184252e-08
1.264609457e-08
1.240420987e-08
1.218386251e-08
1.19822924e-08
1.179654195e-08
1.162360554e-08
1.146056556e-08
1.130470535e-08
1.115357844e-08
1.100503799e-08
1.085724069e-08
1.07086357e-08
1.055794455e-08
1.040413029e-08
1.024636306e-08
1.008399162e-08
9.916510171e-09
9.74352822e-09
9.564730955e-09
9.379898656e-09
9.188906381e-09
8.991665601e-09
8.788107969e-09
8.578296403e-09
8.362428025e-09
8.139716319e-09
7.910886132e-09
7.67635902e-09
7.436132478e-09
7.190304273e-09
6.939113144e-09
6.682849345e-09
6.421823005e-09
6.156371974e-09
5.886869761e-09
5.61372659e-09
5.33738537e-09
1.631653858e-08
1.624563863e-08
1.607384469e-08
1.58224116e-08
1.552952036e-08
1.521673462e-08
1.48908197e-08
1.455836051e-08
1.42289875e-08
1.391061792e-08
1.360747699e-08
1.332162363e-08
1.305422633e-08
1.280560891e-08
1.257510003e-08
1.236124081e-08
1.216211949e-08
1.197560449e-08
1.1799477e-08
1.163152977e-08
1.146965157e-08
1.131188706e-08
1.115646942e-08
1.100183301e-08
1.084661363e-08
1.068964046e-08
1.052992241e-08
1.036663099e-08
1.019908409e-08
1.002672744e-08
9.849112182e-09
9.665867389e-09
9.476714938e-09
9.281474147e-09
9.080027113e-09
8.872127312e-09
8.65762634e-09
8.436279966e-09
8.208702259e-09
7.975078253e-09
7.735442052e-09
7.489817512e-09
7.238354014e-09
6.981307086e-09
6.718975387e-09
6.451682497e-09
6.179786736e-09
5.903687574e-09
5.623823539e-09
5.34066765e-09
1.58396364e-08
1.578944281e-08
1.566386715e-08
1.547294898e-08
1.524302111e-08
1.499213886e-08
1.472766393e-08
1.445444748e-08
1.417883221e-08
1.390703573e-08
1.364331133e-08
1.339011196e-08
1.314888318e-08
1.292035485e-08
1.270452417e-08
1.250074016e-08
1.230790206e-08
1.212463587e-08
1.194940903e-08
1.178061425e-08
1.161664254e-08
1.14559424e-08
1.12970602e-08
1.11386639e-08
1.097955482e-08
1.081867134e-08
1.065508663e-08
1.04880016e-08
1.03167363e-08
1.014071832e-08
9.959466542e-09
9.772518157e-09
9.579597422e-09
9.380389954e-09
9.174641746e-09
8.962337826e-09
8.743395793e-09
8.517784312e-09
8.285642366e-09
8.046999797e-09
7.801902761e-09
7.550480527e-09
7.292934719e-09
7.029521471e-09
6.760540097e-09
6.48633086e-09
6.207277437e-09
5.923807453e-09
5.636389759e-09
5.345530707e-09
1.546730104e-08
1.542945271e-08
1.533588056e-08
1.519183667e-08
1.501358037e-08
1.481334924e-08
1.459738745e-08
1.437020775e-08
1.413696899e-08
1.39027899e-08
1.367158103e-08
1.344590084e-08
1.322738858e-08
1.301704434e-08
1.281527876e-08
1.26219561e-08
1.243651133e-08
1.225808271e-08
1.208561454e-08
1.191793352e-08
1.175381246e-08
1.159202378e-08
1.143137955e-08
1.127075838e-08
1.110912193e-08
1.094552386e-08
1.077911313e-08
1.060913089e-08
1.04349069e-08
1.025586182e-08
1.007149399e-08
9.881420574e-09
9.685206721e-09
9.482563354e-09
9.273286786e-09
9.057242034e-09
8.834304431e-09
8.604390748e-09
8.367492407e-09
8.123662191e-09
7.873002556e-09
7.615664613e-09
7.351846704e-09
7.081799437e-09
6.805828878e-09
6.524294496e-09
6.237606083e-09
5.946221377e-09
5.650643253e-09
5.351416052e-09
1.517509034e-08
1.514610846e-08
1.507422924e-08
1.496205494e-08
1.482014469e-08
1.465707346e-08
1.44780128e-08
1.428702535e-08
1.40883333e-08
1.388599846e-08
1.368330023e-08
1.348259384e-08
1.328551022e-08
1.309313409e-08
1.29060642e-08
1.272445045e-08
1.254806903e-08
1.237641643e-08
1.220879099e-08
1.204435628e-08
1.188219319e-08
1.172134458e-08
1.156085106e-08
1.139977729e-08
1.123723058e-08
1.107237491e-08
1.090443567e-08
1.073270812e-08
1.055655565e-08
1.037540015e-08
1.018872709e-08
9.996093847e-09
9.797101342e-09
9.591431516e-09
9.378829974e-09
9.159094494e-09
8.932075567e-09
8.697680798e-09
8.455885306e-09
8.206730068e-09
7.95030576e-09
7.686751768e-09
7.416264583e-09
7.139103984e-09
6.855593237e-09
6.566115598e-09
6.27111069e-09
5.971071688e-09
5.666542084e-09
5.358111223e-09
1.494434888e-08
1.492136891e-08
1.486427749e-08
1.477451092e-08
1.465950038e-08
1.452537635e-08
1.437605119e-08
1.421477174e-08
1.404488324e-08
1.386960329e-08
1.369163937e-08
1.351307347e-08
1.33354432e-08
1.315983801e-08
1.298694675e-08
1.281709026e-08
1.265027165e-08
1.248624035e-08
1.232455255e-08
1.216462168e-08
1.200576153e-08
1.184722395e-08
1.168823049e-08
1.152799763e-08
1.136574926e-08
1.120075053e-08
1.103229665e-08
1.085972163e-08
1.068240807e-08
1.049978984e-08
1.031135409e-08
1.011664373e-08
9.915254593e-09
9.706837155e-09
9.491099749e-09
9.267809455e-09
9.036792758e-09
8.797935084e-09
8.551183778e-09
8.296549736e-09
8.034105667e-09
7.763987865e-09
7.486400298e-09
7.20161668e-09
6.909979816e-09
6.611899381e-09
6.307849015e-09
5.998363016e-09
5.684032294e-09
5.365498977e-09
1.47622371e-08
1.474358701e-08
1.469725643e-08
1.462409262e-08
1.452953712e-08
1.441799763e-08
1.429231279e-08
1.415498536e-08
1.400867905e-08
1.38559857e-08
1.369913703e-08
1.353992044e-08
1.337971836e-08
1.32195585e-08
1.306014258e-08
1.290186998e-08
1.274487202e-08
1.25890562e-08
1.243415079e-08
1.22797431e-08
1.212531417e-08
1.197027251e-08
1.18139748e-08
1.165575913e-08
1.14949583e-08
1.133089717e-08
1.116292494e-08
1.09904185e-08
1.081278518e-08
1.06294684e-08
1.04399519e-08
1.024376327e-08
1.004047636e-08
9.829714131e-09
9.611153793e-09
9.384529878e-09
9.149635916e-09
8.906326694e-09
8.654522166e-09
8.394211454e-09
8.125455323e-09
7.848388026e-09
7.563219359e-09
7.270236246e-09
6.969803133e-09
6.66236085e-09
6.348423784e-09
6.028575586e-09
5.703463798e-09
5.373793353e-09
1.461956628e-08
1.460416896e-08
1.456591402e-08
1.450529939e-08
1.442643982e-08
1.433258066e-08
1.422578391e-08
1.410795681e-08
1.398120557e-08
1.384760721e-08
1.370897627e-08
1.356680622e-08
1.342229433e-08
1.327636589e-08
1.312968581e-08
1.298267266e-08
1.28355213e-08
1.268823262e-08
1.254064473e-08
1.239246533e-08
1.224328892e-08
1.209264386e-08
1.193999665e-08
1.178476522e-08
1.162634962e-08
1.14641404e-08
1.1297531e-08
1.112592545e-08
1.094874446e-08
1.076543213e-08
1.057546203e-08
1.037834259e-08
1.017362199e-08
9.96089312e-09
9.739798828e-09
9.51003688e-09
9.271364593e-09
9.023603726e-09
8.766645712e-09
8.500456751e-09
8.225082111e-09
7.94064964e-09
7.647372812e-09
7.345552958e-09
7.03558008e-09
6.717931951e-09
6.393171273e-09
6.061940661e-09
5.724955709e-09
5.38299666e-09
1.450944178e-08
1.449654619e-08
1.446450178e-08
1.441359628e-08
1.434703267e-08
1.426725855e-08
1.417577422e-08
1.407401216e-08
1.396361749e-08
1.384624246e-08
1.372335185e-08
1.359617731e-08
1.346573383e-08
1.33328296e-08
1.31980658e-08
1.306184174e-08
1.292437123e-08
1.278571492e-08
1.264576542e-08
1.250430785e-08
1.236102691e-08
1.221551349e-08
1.20673021e-08
1.191587989e-08
1.176069979e-08
1.160119314e-08
1.143677973e-08
1.126687693e-08
1.109090781e-08
1.090830843e-08
1.071853471e-08
1.05210691e-08
1.031542705e-08
1.010116349e-08
9.87787965e-09
9.64522987e-09
9.402928675e-09
9.150757848e-09
8.888573519e-09
8.616313094e-09
8.334001665e-09
8.041757587e-09
7.739797068e-09
7.428437382e-09
7.108098162e-09
6.77930059e-09
6.442664422e-09
6.098902419e-09
5.748812017e-09
5.393264747e-09
1.442656234e-08
1.441563742e-08
1.438848595e-08
1.434526515e-08
1.428852386e-08
1.422014306e-08
1.414121613e-08
1.405281083e-08
1.395620565e-08
1.385271115e-08
1.374350435e-08
1.362959039e-08
1.351181402e-08
1.339086316e-08
1.326726304e-08
1.314137431e-08
1.301337046e-08
1.288335989e-08
1.275128011e-08
1.261693454e-08
1.248004878e-08
1.234027114e-08
1.21971833e-08
1.205031213e-08
1.189914164e-08
1.174312455e-08
1.158169208e-08
1.141426278e-08
1.124025067e-08
1.1059073e-08
1.087015774e-08
1.067295128e-08
1.046692624e-08
1.025158953e-08
1.002649078e-08
9.791231143e-09
9.54547245e-09
9.288946681e-09
9.021465515e-09
8.742929685e-09
8.453337742e-09
8.152793839e-09
7.841514248e-09
7.51983219e-09
7.188200332e-09
6.847190395e-09
6.497489822e-09
6.139895291e-09
5.775302835e-09
5.404694851e-09
1.436675718e-08
1.435741992e-08
1.433420754e-08
1.429719387e-08
1.424844363e-08
1.41894266e-08
1.412094186e-08
1.404378235e-08
1.395893914e-08
1.386744858e-08
1.377025034e-08
1.36681549e-08
1.356185281e-08
1.345191315e-08
1.333877577e-08
1.322275007e-08
1.310404491e-08
1.298267127e-08
1.285857973e-08
1.273161966e-08
1.26015459e-08
1.246803058e-08
1.233067634e-08
1.218902877e-08
1.204258571e-08
1.189080584e-08
1.173311748e-08
1.156892693e-08
1.139762644e-08
1.121860198e-08
1.103124147e-08
1.083494316e-08
1.062912456e-08
1.041323181e-08
1.018674989e-08
9.949213388e-09
9.700218015e-09
9.439432685e-09
9.166611912e-09
8.881608103e-09
8.584383274e-09
8.275019714e-09
7.953729087e-09
7.620859489e-09
7.276899664e-09
6.922479541e-09
6.558366759e-09
6.185459137e-09
5.804772717e-09
5.417425587e-09
1.432667102e-08
1.431864227e-08
1.42986679e-08
1.426676824e-08
1.422464151e-08
1.417345336e-08
1.411378879e-08
1.404623278e-08
1.397154857e-08
1.3890556e-08
1.380400228e-08
1.371253348e-08
1.361670556e-08
1.351698302e-08
1.341372737e-08
1.330718879e-08
1.319750914e-08
1.308471136e-08
1.296873479e-08
1.284943014e-08
1.272655598e-08
1.259978961e-08
1.246874042e-08
1.233295859e-08
1.219194093e-08
1.204513775e-08
1.189196077e-08
1.173179086e-08
1.156398545e-08
1.138788635e-08
1.12028281e-08
1.100814696e-08
1.080319068e-08
1.058732921e-08
1.035996652e-08
1.012055368e-08
9.868602943e-09
9.60370278e-09
9.325533569e-09
9.033883476e-09
8.728663966e-09
8.409924265e-09
8.077864003e-09
7.732843302e-09
7.375389411e-09
7.006198767e-09
6.626133811e-09
6.236214419e-09
5.837603557e-09
5.431586875e-09
1.430354785e-08
1.42966166e-08
1.427935544e-08
1.425175163e-08
1.421521614e-08
1.417068353e-08
1.411858516e-08
1.405935933e-08
1.39935769e-08
1.392188714e-08
1.384488188e-08
1.376307251e-08
1.367689952e-08
1.358673094e-08
1.349285064e-08
1.339545005e-08
1.329462748e-08
1.319038946e-08
1.308265386e-08
1.297125346e-08
1.285593888e-08
1.273638453e-08
1.261219531e-08
1.248291219e-08
1.234801743e-08
1.220694043e-08
1.205906408e-08
1.190373135e-08
1.174025212e-08
1.156791061e-08
1.138597361e-08
1.119369982e-08
1.099035034e-08
1.07752006e-08
1.054755395e-08
1.030675701e-08
1.005221672e-08
9.783418745e-09
9.499947101e-09
9.201504439e-09
8.887932404e-09
8.559231077e-09
8.215576407e-09
7.857334553e-09
7.485072103e-09
7.099560805e-09
6.701775348e-09
6.292883604e-09
5.874229118e-09
5.447305442e-09
1.429511768e-08
1.428910273e-08
1.427415072e-08
1.42502297e-08
1.421851137e-08
1.417974703e-08
1.413424787e-08
1.408232317e-08
1.402444966e-08
1.396112107e-08
1.389279341e-08
1.381986693e-08
1.374268634e-08
1.366153648e-08
1.357663232e-08
1.348811102e-08
1.339602882e-08
1.33003601e-08
1.320099719e-08
1.309775331e-08
1.299036477e-08
1.287849295e-08
1.276172721e-08
1.263958907e-08
1.251153625e-08
1.237696694e-08
1.223522438e-08
1.208560222e-08
1.192735037e-08
1.175968179e-08
1.158178035e-08
1.139281016e-08
1.119192665e-08
1.097828962e-08
1.075107855e-08
1.05095103e-08
1.025285935e-08
9.980480251e-09
9.691831915e-09
9.386503341e-09
9.064240055e-09
8.724970137e-09
8.368828291e-09
7.996176306e-09
7.60761848e-09
7.204010491e-09
6.786459424e-09
6.356313175e-09
5.915138851e-09
5.46469009e-09
1.429941649e-08
1.429417581e-08
1.428121703e-08
1.426049991e-08
1.423299389e-08
1.419930394e-08
1.415965924e-08
1.411429124e-08
1.406355385e-08
1.400783497e-08
1.394749058e-08
1.388283006e-08
1.381411731e-08
1.374156628e-08
1.366533153e-08
1.358550028e-08
1.350208799e-08
1.341503621e-08
1.33242114e-08
1.322940477e-08
1.31303323e-08
1.3026635e-08
1.291788015e-08
1.280356321e-08
1.268311003e-08
1.255587932e-08
1.242116563e-08
1.227820309e-08
1.212617005e-08
1.196419472e-08
1.179136243e-08
1.160672463e-08
1.140931011e-08
1.119813908e-08
1.097223999e-08
1.073066969e-08
1.047253702e-08
1.01970298e-08
9.9034449e-09
9.591220636e-09
9.259970876e-09
8.909519555e-09
8.539933929e-09
8.151554097e-09
7.745016343e-09
7.321268093e-09
6.881571644e-09
6.427493785e-09
5.960879843e-09
5.483812171e-09
1.431461609e-08
1.431010725e-08
1.429894338e-08
1.428107849e-08
1.425732784e-08
1.422818577e-08
1.41938195e-08
1.415439566e-08
1.411018384e-08
1.406148844e-08
1.400858571e-08
1.395171078e-08
1.389106062e-08
1.382679002e-08
1.375900223e-08
1.36877409e-08
1.361298508e-08
1.353464596e-08
1.345256422e-08
1.336650785e-08
1.327617049e-08
1.318117021e-08
1.308104887e-08
1.29752718e-08
1.286322805e-08
1.274423096e-08
1.261751932e-08
1.248225922e-08
1.233754696e-08
1.21824133e-08
1.201582945e-08
1.183671533e-08
1.16439506e-08
1.143638904e-08
1.121287682e-08
1.097227501e-08
1.071348659e-08
1.043548841e-08
1.013736791e-08
9.818363998e-09
9.477910902e-09
9.115683829e-09
8.731644449e-09
8.326083302e-09
7.899655285e-09
7.453404351e-09
6.988773604e-09
6.507596615e-09
6.012067091e-09
5.50468639e-09
1.433928884e-08
1.433544041e-08
1.432589256e-08
1.431059822e-08
1.429024507e-08
1.426523875e-08
1.423570053e-08
1.420175015e-08
1.416359491e-08
1.412147161e-08
1.407559247e-08
1.402613408e-08
1.397324023e-08
1.391701801e-08
1.385752873e-08
1.379477994e-08
1.372871989e-08
1.36592334e-08
1.358613794e-08
1.350918005e-08
1.342803209e-08
1.334228935e-08
1.325146746e-08
1.315500026e-08
1.305223782e-08
1.294244491e-08
1.282479993e-08
1.269839453e-08
1.256223439e-08
1.241524139e-08
1.225625782e-08
1.208405319e-08
1.189733424e-08
1.169475911e-08
1.147495627e-08
1.123654909e-08
1.097818635e-08
1.069857939e-08
1.039654626e-08
1.007106265e-08
9.721318332e-09
9.346777694e-09
8.947241752e-09
8.522908361e-09
8.074425432e-09
7.602931225e-09
7.110075952e-09
6.598018304e-09
6.069391556e-09
5.527236832e-09
1.437206015e-08
1.436880944e-08
1.436073822e-08
1.434780145e-08
1.433057349e-08
1.430938641e-08
1.428432928e-08
1.425548884e-08
1.422302514e-08
1.418712243e-08
1.414794361e-08
1.410562066e-08
1.406025658e-08
1.401192143e-08
1.39606439e-08
1.390640336e-08
1.384912405e-08
1.378867004e-08
1.372484033e-08
1.365736396e-08
1.358589534e-08
1.351000968e-08
1.342919867e-08
1.334286618e-08
1.325032416e-08
1.315078857e-08
1.304337574e-08
1.29270994e-08
1.280086861e-08
1.266348726e-08
1.251365553e-08
1.234997435e-08
1.217095345e-08
1.197502422e-08
1.176055827e-08
1.152589306e-08
1.126936557e-08
1.098935483e-08
1.068433415e-08
1.035293351e-08
9.994011558e-09
9.606735422e-09
9.190665346e-09
8.74583991e-09
8.27285519e-09
7.772929373e-09
7.247943924e-09
6.700451638e-09
6.133642217e-09
5.551258836e-09
1.441167577e-08
1.440897753e-08
1.440227577e-08
1.439152996e-08
1.43772133e-08
1.435959663e-08
1.433874771e-08
1.431473154e-08
1.428767338e-08
1.425771799e-08
1.422499148e-08
1.4189593e-08
1.415159569e-08
1.411104276e-08
1.406793952e-08
1.402224568e-08
1.397386913e-08
1.392266021e-08
1.386840588e-08
1.381082368e-08
1.374955571e-08
1.368416257e-08
1.361411712e-08
1.353879807e-08
1.345748331e-08
1.336934321e-08
1.327343407e-08
1.316869185e-08
1.305392668e-08
1.292781869e-08
1.27889157e-08
1.263563401e-08
1.246626311e-08
1.227897574e-08
1.207184449e-08
1.184286698e-08
1.159000126e-08
1.131121328e-08
1.100453748e-08
1.06681521e-08
1.030046954e-08
9.900240504e-09
9.466668783e-09
8.999531339e-09
8.49929571e-09
7.967222963e-09
7.405442077e-09
6.816980515e-09
6.20573491e-09
5.57636911e-09
1.445697431e-08
1.445479359e-08
1.444937611e-08
1.444068831e-08
1.44291129e-08
1.441486936e-08
1.439801253e-08
1.437859473e-08
1.435671676e-08
1.433249472e-08
1.430602869e-08
1.427739542e-08
1.424664833e-08
1.421381352e-08
1.417888225e-08
1.41418034e-08
1.410247697e-08
1.406074771e-08
1.40163985e-08
1.396914331e-08
1.391861998e-08
1.386438258e-08
1.380589326e-08
1.374251359e-08
1.367349524e-08
1.359797039e-08
1.351494166e-08
1.342327213e-08
1.33216755e-08
1.320870716e-08
1.308275696e-08
1.294204455e-08
1.278461887e-08
1.260836322e-08
1.241100773e-08
1.219015157e-08
1.194329786e-08
1.166790396e-08
1.136144979e-08
1.102152659e-08
1.064594828e-08
1.023288542e-08
9.781019281e-09
9.289709967e-09
8.759169322e-09
8.190623307e-09
7.586442816e-09
6.95021783e-09
6.286746962e-09
5.601917199e-09
1.450686695e-08
1.450517573e-08
1.450097369e-08
1.449423611e-08
1.448526407e-08
1.447423355e-08
1.44611933e-08
1.444619039e-08
1.442930984e-08
1.441064843e-08
1.43902897e-08
1.43682974e-08
1.434471462e-08
1.431955967e-08
1.429281891e-08
1.42644395e-08
1.423432258e-08
1.420231648e-08
1.416820941e-08
1.413172158e-08
1.409249683e-08
1.405009337e-08
1.400397384e-08
1.395349427e-08
1.389789213e-08
1.383627338e-08
1.376759872e-08
1.369066897e-08
1.360411014e-08
1.350635864e-08
1.33956474e-08
1.326999406e-08
1.312719258e-08
1.296481039e-08
1.278019341e-08
1.257048182e-08
1.233264051e-08
1.206350843e-08
1.175987177e-08
1.141856511e-08
1.103660495e-08
1.061135854e-08
1.014074757e-08
9.623481553e-09
9.059310354e-09
8.449276878e-09
7.795940437e-09
7.103531895e-09
6.377993725e-09
5.62685577e-09
1.456032362e-08
1.455909865e-08
1.455605449e-08
1.455117673e-08
1.454469215e-08
1.453673982e-08
1.452736802e-08
1.451662485e-08
1.450458694e-08
1.449133984e-08
1.447695886e-08
1.446150326e-08
1.444501452e-08
1.442751197e-08
1.440898612e-08
1.438939163e-08
1.436864041e-08
1.434659444e-08
1.432305797e-08
1.429776893e-08
1.427038942e-08
1.424049513e-08
1.420756347e-08
1.417096034e-08
1.412992541e-08
1.408355575e-08
1.403078787e-08
1.397037806e-08
1.390088136e-08
1.382062972e-08
1.37277098e-08
1.361994172e-08
1.349485986e-08
1.334969832e-08
1.31813838e-08
1.298653979e-08
1.276150654e-08
1.250238316e-08
1.220509941e-08
1.18655246e-08
1.147962168e-08
1.10436538e-08
1.055444798e-08
1.000971467e-08
9.408413394e-09
8.751141771e-09
8.040507351e-09
7.2814233e-09
6.481254086e-09
5.649726518e-09
1.46163633e-08
1.461558427e-08
1.461364759e-08
1.461055032e-08
1.460645115e-08
1.460145787e-08
1.459562293e-08
1.458900076e-08
1.458166591e-08
1.457369968e-08
1.456517655e-08
1.455615901e-08
1.454669492e-08
1.453681306e-08
1.452651691e-08
1.451577797e-08
1.450452888e-08
1.449265609e-08
1.447999166e-08
1.44663041e-08
1.445128798e-08
1.443455211e-08
1.441560606e-08
1.439384484e-08
1.436853139e-08
1.43387769e-08
1.430351831e-08
1.426149328e-08
1.421121237e-08
1.415092886e-08
1.407860656e-08
1.399188656e-08
1.388805407e-08
1.376400758e-08
1.36162336e-08
1.344079181e-08
1.32333161e-08
1.298903946e-08
1.270285344e-08
1.236941431e-08
1.198330963e-08
1.153929959e-08
1.103264706e-08
1.04595447e-08
9.817636766e-09
9.106614933e-09
8.328836814e-09
7.489874638e-09
6.598864338e-09
5.668498932e-09
1.46740477e-08
1.467369584e-08
1.467282009e-08
1.467142987e-08
1.466962123e-08
1.466747543e-08
1.466505302e-08
1.466241915e-08
1.465965167e-08
1.465683373e-08
1.46540455e-08
1.465135961e-08
1.46488377e-08
1.46465259e-08
1.464444919e-08
1.464260516e-08
1.464095734e-08
1.463942784e-08
1.463788906e-08
1.463615406e-08
1.463396559e-08
1.463098335e-08
1.462676924e-08
1.462077022e-08
1.461229838e-08
1.460050785e-08
1.458436811e-08
1.45626333e-08
1.453380726e-08
1.449610414e-08
1.444740457e-08
1.438520802e-08
1.43065821e-08
1.420811046e-08
1.408584245e-08
1.393524945e-08
1.3751195e-08
1.352792788e-08
1.325911196e-08
1.293791051e-08
1.255714697e-08
1.210956716e-08
1.158823078e-08
1.098705748e-08
1.030154382e-08
9.529649068e-09
8.67281055e-09
7.736978361e-09
6.733450929e-09
5.679146652e-09
1.473247789e-08
1.473253487e-08
1.473267465e-08
1.473291963e-08
1.473330817e-08
1.473389909e-08
1.47347642e-08
1.473598301e-08
1.473764122e-08
1.473982908e-08
1.474263817e-08
1.474615743e-08
1.475046895e-08
1.475564353e-08
1.476173569e-08
1.476877807e-08
1.477677511e-08
1.47856959e-08
1.479546589e-08
1.48059573e-08
1.481697787e-08
1.48282576e-08
1.483943318e-08
1.485002956e-08
1.485943807e-08
1.486689052e-08
1.487142854e-08
1.487186763e-08
1.486675509e-08
1.485432114e-08
1.483242251e-08
1.479847837e-08
1.474939866e-08
1.468150574e-08
1.459045139e-08
1.44711333e-08
1.431761848e-08
1.412308412e-08
1.387979179e-08
1.357911851e-08
1.321167712e-08
1.276756697e-08
1.223680472e-08
1.160998853e-08
1.087924102e-08
1.003945807e-08
9.089852118e-09
8.035732878e-09
6.890330223e-09
5.676140718e-09
1.479079342e-08
1.479124047e-08
1.479234931e-08
1.479415572e-08
1.479664489e-08
1.479985676e-08
1.480387692e-08
1.480880214e-08
1.481472976e-08
1.482176159e-08
1.483000553e-08
1.483957213e-08
1.485056986e-08
1.486310074e-08
1.487725623e-08
1.489311237e-08
1.491072399e-08
1.493011801e-08
1.495128551e-08
1.49741725e-08
1.499866888e-08
1.502459528e-08
1.505168719e-08
1.507957592e-08
1.510776564e-08
1.513560548e-08
1.51622559e-08
1.518664818e-08
1.520743597e-08
1.52229375e-08
1.523106676e-08
1.522925207e-08
1.521434119e-08
1.518249237e-08
1.512905151e-08
1.504841738e-08
1.493390032e-08
1.477758456e-08
1.457021053e-08
1.430110428e-08
1.395819554e-08
1.352818567e-08
1.299694994e-08
1.235028633e-08
1.157512673e-08
1.066131401e-08
9.603928137e-09
8.406065111e-09
7.081822349e-09
5.659291479e-09
1.484817333e-08
1.484899053e-08
1.485101908e-08
1.485430826e-08
1.48587944e-08
1.486450166e-08
1.487153129e-08
1.48799995e-08
1.489001838e-08
1.490170494e-08
1.491518741e-08
1.493060244e-08
1.494808978e-08
1.496778836e-08
1.498983301e-08
1.501435053e-08
1.504145468e-08
1.507124012e-08
1.510377531e-08
1.513909401e-08
1.517718504e-08
1.521797982e-08
1.526133705e-08
1.530702396e-08
1.535469319e-08
1.540385428e-08
1.545383845e-08
1.550375524e-08
1.55524393e-08
1.559838518e-08
1.563966761e-08
1.567384403e-08
1.569783643e-08
1.570778967e-08
1.569890377e-08
1.566523795e-08
1.559948731e-08
1.549273798e-08
1.533421353e-08
1.51110373e-08
1.48080551e-08
1.440778985e-08
1.389064031e-08
1.323551494e-08
1.242114758e-08
1.142854374e-08
1.024471823e-08
8.868073895e-09
7.31384367e-09
5.618632999e-09
1.490383869e-08
1.490500441e-08
1.490789897e-08
1.491258502e-08
1.491895422e-08
1.492701767e-08
1.493689353e-08
1.494871901e-08
1.496262322e-08
1.497874122e-08
1.499722469e-08
1.501823976e-08
1.504196142e-08
1.506856996e-08
1.509824878e-08
1.513118145e-08
1.516754773e-08
1.520751849e-08
1.525124978e-08
1.529887559e-08
1.535049895e-08
1.540618085e-08
1.546592651e-08
1.552966793e-08
1.559724195e-08
1.566836263e-08
1.574258646e-08
1.581926866e-08
1.589750797e-08
1.597607709e-08
1.605333526e-08
1.61271184e-08
1.619460135e-08
1.625212578e-08
1.629498706e-08
1.631717224e-08
1.631104228e-08
1.626695445e-08
1.617282753e-08
1.601366403e-08
1.577106618e-08
1.542281593e-08
1.494263359e-08
1.430031e-08
1.346246893e-08
1.239484579e-08
1.106633756e-08
9.459527858e-09
7.582475669e-09
5.491671435e-09
1.495705632e-08
1.495854676e-08
1.496224815e-08
1.496823616e-08
1.497636193e-08
1.498662585e-08
1.49991637e-08
1.501413448e-08
1.503168587e-08
1.505197293e-08
1.507517288e-08
1.510148367e-08
1.513111817e-08
1.516430115e-08
1.520126818e-08
1.524226392e-08
1.52875393e-08
1.533734782e-08
1.539194109e-08
1.545156335e-08
1.551644447e-08
1.558679113e-08
1.566277537e-08
1.574451986e-08
1.58320786e-08
1.592541205e-08
1.602435527e-08
1.612857679e-08
1.623752538e-08
1.635036075e-08
1.646586409e-08
1.658232245e-08
1.669737909e-08
1.680783945e-08
1.690942054e-08
1.699642833e-08
1.706134451e-08
1.709430169e-08
1.708242789e-08
1.700904799e-08
1.68527565e-08
1.658641285e-08
1.617622955e-08
1.558112406e-08
1.475276602e-08
1.363659908e-08
1.217316842e-08
1.03091595e-08
7.999615241e-09
5.301285388e-09
1.500714331e-08
1.500893221e-08
1.501337503e-08
1.502055988e-08
1.503030156e-08
1.504259183e-08
1.505758417e-08
1.507545945e-08
1.509638466e-08
1.512053588e-08
1.514811693e-08
1.517935867e-08
1.521451311e-08
1.525385101e-08
1.52976619e-08
1.534625379e-08
1.539995169e-08
1.54590955e-08
1.552403735e-08
1.559513835e-08
1.567276408e-08
1.575727859e-08
1.584903626e-08
1.59483707e-08
1.605557997e-08
1.617090659e-08
1.629451115e-08
1.642643711e-08
1.656656399e-08
1.671454459e-08
1.686972113e-08
1.70310136e-08
1.719677054e-08
1.736456888e-08
1.753094511e-08
1.769103404e-08
1.78380825e-08
1.79627932e-08
1.805244259e-08
1.808970072e-08
1.805108721e-08
1.790498997e-08
1.760942601e-08
1.710955962e-08
1.633706273e-08
1.520946671e-08
1.363800443e-08
1.153124103e-08
8.772377244e-09
5.354359663e-09
1.505347222e-08
1.505553062e-08
1.506064285e-08
1.50689086e-08
1.508011059e-08
1.509423374e-08
1.51114487e-08
1.51319576e-08
1.51559466e-08
1.51836129e-08
1.521518684e-08
1.525093202e-08
1.529113934e-08
1.533612527e-08
1.538623315e-08
1.544183428e-08
1.550332798e-08
1.557114119e-08
1.564572793e-08
1.572756847e-08
1.581716788e-08
1.591505342e-08
1.602177035e-08
1.613787557e-08
1.626392864e-08
1.640047896e-08
1.654804738e-08
1.670710038e-08
1.687801404e-08
1.706102438e-08
1.725615814e-08
1.74631368e-08
1.768124378e-08
1.790914035e-08
1.814460907e-08
1.838419528e-08
1.862270296e-08
1.885247965e-08
1.906239403e-08
1.923635629e-08
1.935116816e-08
1.937332041e-08
1.925446996e-08
1.892438285e-08
1.828422969e-08
1.719249126e-08
1.548686352e-08
1.295310545e-08
9.485187197e-09
5.04696332e-09
1.50954765e-08
1.509777275e-08
1.510347566e-08
1.511269549e-08
1.512518719e-08
1.514093037e-08
1.516011174e-08
1.518295328e-08
1.520965945e-08
1.524044768e-08
1.527557366e-08
1.531533219e-08
1.536005123e-08
1.541009095e-08
1.546584618e-08
1.552774898e-08
1.559627027e-08
1.567192119e-08
1.57552548e-08
1.584686794e-08
1.594740288e-08
1.605754856e-08
1.617804098e-08
1.63096624e-08
1.645323913e-08
1.660963716e-08
1.677975411e-08
1.69645058e-08
1.716480527e-08
1.738153152e-08
1.761548318e-08
1.786731005e-08
1.813741341e-08
1.842580194e-08
1.873188284e-08
1.905415824e-08
1.938978235e-08
1.973390981e-08
2.007872477e-08
2.041196768e-08
2.071465852e-08
2.095741371e-08
2.109448351e-08
2.105268826e-08
2.071452637e-08
1.987427794e-08
1.821568949e-08
1.508154659e-08
9.979352034e-09
1.700160928e-09
1.51326561e-08
1.513515589e-08
1.514136434e-08
1.515140102e-08
1.51649975e-08
1.518212936e-08
1.520299766e-08
1.522784213e-08
1.525688384e-08
1.529035867e-08
1.532854545e-08
1.537176728e-08
1.542038588e-08
1.547480127e-08
1.553545541e-08
1.560283604e-08
1.56774798e-08
1.575997546e-08
1.585096785e-08
1.595116227e-08
1.606132942e-08
1.61823103e-08
1.631502155e-08
1.646046071e-08
1.661971135e-08
1.679394762e-08
1.698443758e-08
1.71925442e-08
1.741972232e-08
1.766750958e-08
1.793750841e-08
1.823135375e-08
1.855065949e-08
1.889693326e-08
1.927144367e-08
1.967501603e-08
2.010772054e-08
2.05683971e-08
2.105392782e-08
2.155811258e-08
2.20699083e-08
2.257057484e-08
2.302895879e-08
2.339274428e-08
2.357294725e-08
2.340251332e-08
2.257364396e-08
2.026781153e-08
1.521028051e-08
5.127095619e-10
1.51645829e-08
1.516724955e-08
1.517387261e-08
1.518457945e-08
1.519908275e-08
1.521735503e-08
1.523960951e-08
1.526610094e-08
1.529706462e-08
1.53327523e-08
1.537346261e-08
1.541954298e-08
1.547138418e-08
1.552942051e-08
1.559413455e-08
1.566606217e-08
1.574579692e-08
1.583399497e-08
1.593138105e-08
1.603875542e-08
1.615700151e-08
1.628709463e-08
1.643011176e-08
1.658724279e-08
1.675980284e-08
1.694924562e-08
1.715717792e-08
1.738537511e-08
1.763579684e-08
1.79106013e-08
1.821215723e-08
1.854305115e-08
1.89060849e-08
1.930425718e-08