/*--------------------------------*- C++ -*----------------------------------*\
| =========                 |                                                 |
| \\      /  F ield         | foam-extend: Open Source CFD                    |
|  \\    /   O peration     | Version:     4.1                                |
|   \\  /    A nd           | Web:         http://www.foam-extend.org         |
|    \\/     M anipulation  |                                                 |
\*---------------------------------------------------------------------------*/
FoamFile
{
    version     2.0;
    format      ascii;
    class       surfaceScalarField;
    location    "60000";
    object      phi;
}
// * * * * * * * * * * * * * * * * * * * * * * * * * * * * * * * * * * * * * //

dimensions      [0 3 -1 0 0 0 0];

internalField   nonuniform List<scalar> 
31542
(
1.062568989e-07
3.07310113e-09
1.006313398e-07
5.625559611e-09
9.413783237e-08
6.493507785e-09
8.736802708e-08
6.769805549e-09
8.060246173e-08
6.765565467e-09
7.409959238e-08
6.502869342e-09
6.803248169e-08
6.067110582e-09
6.24955139e-08
5.536967636e-09
5.753342002e-08
4.962093723e-09
5.315602483e-08
4.377395067e-09
4.934860265e-08
3.807422113e-09
4.607832952e-08
3.270273122e-09
4.330052769e-08
2.777801881e-09
4.096446404e-08
2.336063749e-09
3.90176552e-08
1.946808995e-09
3.740877144e-08
1.608883962e-09
3.608953593e-08
1.319235742e-09
3.501587735e-08
1.073658831e-09
3.414850508e-08
8.673724931e-10
3.345306664e-08
6.954386012e-10
3.290002546e-08
5.530412521e-10
3.246436011e-08
4.356653585e-10
3.212515602e-08
3.392040329e-10
3.186514125e-08
2.600147034e-10
3.167020087e-08
1.949403465e-10
3.152884165e-08
1.413592445e-10
3.143167947e-08
9.716227462e-11
3.137168969e-08
5.998994539e-11
3.134354997e-08
2.813994135e-11
3.13444398e-08
-8.895857012e-13
3.136734308e-08
-2.290300179e-11
3.141074888e-08
-4.340551603e-11
3.147214263e-08
-6.139345384e-11
3.154934648e-08
-7.720356248e-11
3.16405731e-08
-9.12263508e-11
3.174426453e-08
-1.036911976e-10
3.185898015e-08
-1.147154128e-10
3.198335943e-08
-1.243790824e-10
3.211624689e-08
-1.328872547e-10
3.225641637e-08
-1.401692638e-10
3.240248983e-08
-1.460732324e-10
3.255303583e-08
-1.505457977e-10
3.270660786e-08
-1.535718686e-10
3.286172562e-08
-1.551176585e-10
3.301686891e-08
-1.5514326e-10
3.317048772e-08
-1.536187984e-10
3.332101324e-08
-1.50525475e-10
3.346686725e-08
-1.458538509e-10
3.360647203e-08
-1.396044374e-10
-1.31789098e-10
3.373826163e-08
1.113824953e-07
1.020606307e-09
1.139959118e-07
3.012143814e-09
1.160898796e-07
4.399540394e-09
1.174754254e-07
5.38426002e-09
1.181121884e-07
6.128802372e-09
1.179958268e-07
6.619230736e-09
1.172197956e-07
6.84314152e-09
1.159123047e-07
6.844458198e-09
1.141997544e-07
6.674643807e-09
1.12200081e-07
6.377068392e-09
1.10018165e-07
5.989338091e-09
1.077425088e-07
5.545929361e-09
1.054445713e-07
5.075739543e-09
1.031798302e-07
4.600804961e-09
1.009894124e-07
4.137226827e-09
9.890220277e-08
3.696093608e-09
9.693701569e-08
3.284422729e-09
9.510468139e-08
2.905992955e-09
9.340994459e-08
2.562109033e-09
9.185308951e-08
2.252293365e-09
9.043126187e-08
1.974868553e-09
8.913950722e-08
1.727419672e-09
8.797156218e-08
1.507148765e-09
8.692043841e-08
1.311138199e-09
8.597889132e-08
1.136487179e-09
8.513976391e-08
9.804864178e-10
8.439626373e-08
8.406622466e-10
8.374152812e-08
7.147254001e-10
8.316890252e-08
6.007654412e-10
8.267065948e-08
4.973534143e-10
8.224402948e-08
4.037270055e-10
8.188258264e-08
3.180413314e-10
8.158172409e-08
2.394650514e-10
8.133710864e-08
1.674117842e-10
8.114456938e-08
1.0131273e-10
8.10002274e-08
4.065054597e-11
8.090036659e-08
-1.48548713e-11
8.084125438e-08
-6.526717623e-11
8.081995284e-08
-1.115860351e-10
8.083292951e-08
-1.531462672e-10
8.087667298e-08
-1.898170562e-10
8.094790631e-08
-2.217795014e-10
8.104344523e-08
-2.491111799e-10
8.116015676e-08
-2.718295492e-10
8.129495964e-08
-2.899464595e-10
8.144481962e-08
-3.034790069e-10
8.160674405e-08
-3.124500382e-10
8.177778138e-08
-3.168912129e-10
8.195502243e-08
-3.168454048e-10
-3.123704989e-10
8.213560403e-08
1.096500217e-07
7.005850328e-10
1.107425856e-07
1.919580511e-09
1.122122293e-07
2.929897057e-09
1.138788817e-07
3.71760786e-09
1.156530779e-07
4.354606199e-09
1.174072004e-07
4.865108142e-09
1.190164279e-07
5.233913947e-09
1.204004979e-07
5.46038802e-09
1.215153178e-07
5.559823745e-09
1.22343018e-07
5.549368077e-09
1.228868244e-07
5.445531608e-09
1.231666506e-07
5.266103187e-09
1.232128727e-07
5.029517582e-09
1.230606216e-07
4.75305618e-09
1.227460406e-07
4.451808123e-09
1.223038074e-07
4.138327073e-09
1.217656626e-07
3.822567716e-09
1.211596202e-07
3.512035568e-09
1.205096949e-07
3.212034461e-09
1.198359791e-07
2.926009292e-09
1.191549276e-07
2.65592001e-09
1.184797519e-07
2.402595385e-09
1.178208574e-07
2.166043218e-09
1.171862864e-07
1.945709235e-09
1.165820907e-07
1.740682949e-09
1.160127065e-07
1.549870709e-09
1.154812538e-07
1.37211507e-09
1.149897146e-07
1.206264814e-09
1.145392261e-07
1.051254119e-09
1.141304311e-07
9.061486207e-10
1.137639341e-07
7.702242938e-10
1.134392002e-07
6.427755309e-10
1.131555296e-07
5.231359138e-10
1.129120938e-07
4.10847854e-10
1.12707836e-07
3.055707735e-10
1.125414108e-07
2.070759544e-10
1.124112715e-07
1.152846488e-10
1.123154053e-07
3.05993079e-11
1.122526033e-07
-4.878382521e-11
1.122208537e-07
-1.213964467e-10
1.122182195e-07
-1.871826595e-10
1.122429369e-07
-2.464967091e-10
1.1229309e-07
-2.992642843e-10
1.123666797e-07
-3.454192517e-10
1.124616424e-07
-3.849091107e-10
1.125758436e-07
-4.176799532e-10
1.127070794e-07
-4.436855672e-10
1.128530896e-07
-4.629008453e-10
1.130115644e-07
-4.753196313e-10
-4.809624087e-10
1.131801568e-07
1.095679655e-07
4.626199201e-10
1.101005661e-07
1.386980565e-09
1.10829578e-07
2.200885521e-09
1.116818334e-07
2.865352629e-09
1.1264428e-07
3.392159666e-09
1.13706688e-07
3.802700171e-09
1.148363208e-07
4.104281015e-09
1.159940557e-07
4.302652935e-09
1.171440005e-07
4.409878844e-09
1.182537536e-07
4.439614796e-09
1.192955377e-07
4.403747449e-09
1.202485422e-07
4.313098529e-09
1.210997734e-07
4.178286319e-09
1.21843355e-07
4.009474521e-09
1.224793495e-07
3.815813625e-09
1.23012432e-07
3.605244582e-09
1.234505251e-07
3.384474677e-09
1.238035618e-07
3.158998861e-09
1.240824508e-07
2.933145584e-09
1.242982881e-07
2.710172056e-09
1.244618059e-07
2.49240229e-09
1.245830181e-07
2.281383135e-09
1.246710217e-07
2.078039573e-09
1.247339106e-07
1.88282014e-09
1.247787668e-07
1.69582655e-09
1.24811712e-07
1.516925396e-09
1.248379867e-07
1.34584028e-09
1.248620315e-07
1.182219843e-09
1.248875895e-07
1.025696138e-09
1.249178007e-07
8.759373864e-10
1.249553312e-07
7.326937968e-10
1.250023488e-07
5.957579276e-10
1.25060575e-07
4.649096701e-10
1.251314289e-07
3.399939257e-10
1.252160431e-07
2.209565293e-10
1.253151138e-07
1.080051915e-10
1.254283426e-07
2.055834845e-12
1.255574823e-07
-9.854044724e-11
1.257012002e-07
-1.925017326e-10
1.258599008e-07
-2.800970398e-10
1.260336362e-07
-3.609181388e-10
1.26221971e-07
-4.348314795e-10
1.26424379e-07
-5.016723761e-10
1.266401929e-07
-5.6123319e-10
1.268685905e-07
-6.133067961e-10
1.271086142e-07
-6.57703721e-10
1.273591866e-07
-6.942579481e-10
1.276191178e-07
-7.228318677e-10
1.278871179e-07
-7.433195761e-10
-7.556512393e-10
1.28161807e-07
1.094428997e-07
3.497205567e-10
1.097735726e-07
1.056308337e-09
1.102722786e-07
1.702179906e-09
1.108856314e-07
2.252000124e-09
1.115763383e-07
2.701452941e-09
1.123209929e-07
3.058045582e-09
1.130983781e-07
3.326895767e-09
1.138894888e-07
3.511542082e-09
1.146804206e-07
3.618946873e-09
1.154610086e-07
3.659026659e-09
1.162227531e-07
3.642002841e-09
1.169584154e-07
3.577436167e-09
1.176623488e-07
3.474352859e-09
1.183306519e-07
3.341171446e-09
1.189610647e-07
3.185400908e-09
1.195528244e-07
3.013485005e-09
1.201064824e-07
2.830816842e-09
1.206236726e-07
2.641808864e-09
1.211068482e-07
2.449970267e-09
1.215590227e-07
2.257997772e-09
1.219835407e-07
2.067884446e-09
1.223838872e-07
1.881036778e-09
1.227635381e-07
1.698388757e-09
1.231258511e-07
1.520507159e-09
1.23473992e-07
1.347685476e-09
1.238108918e-07
1.180025543e-09
1.241392251e-07
1.017506853e-09
1.244614022e-07
8.600427192e-10
1.247795755e-07
7.075228659e-10
1.250956636e-07
5.59849316e-10
1.25411398e-07
4.169594033e-10
1.257282697e-07
2.788862797e-10
1.26047569e-07
1.456104256e-10
1.26370148e-07
1.741505598e-11
1.266969347e-07
-1.058301841e-10
1.270286836e-07
-2.237436347e-10
1.273671097e-07
-3.363701254e-10
1.277122636e-07
-4.436942629e-10
1.280648082e-07
-5.450463047e-10
1.284248704e-07
-6.40159212e-10
1.287926316e-07
-7.286792981e-10
1.29168048e-07
-8.102478561e-10
1.295509093e-07
-8.845336225e-10
1.299408814e-07
-9.512051431e-10
1.303375131e-07
-1.009938297e-09
1.307402414e-07
-1.060431841e-09
1.311483984e-07
-1.102414809e-09
1.315612172e-07
-1.13565053e-09
1.319778387e-07
-1.159940912e-09
-1.175130758e-09
1.323973184e-07
1.094077059e-07
2.720149904e-10
1.096457374e-07
8.182774251e-10
1.100189625e-07
1.328955218e-09
1.104918725e-07
1.779090425e-09
1.110346113e-07
2.158714356e-09
1.116251753e-07
2.467481688e-09
1.122450772e-07
2.706993742e-09
1.128776201e-07
2.878999092e-09
1.135093435e-07
2.987223266e-09
1.141305889e-07
3.037781107e-09
1.14734718e-07
3.03787358e-09
1.153173853e-07
2.994768717e-09
1.158761901e-07
2.915547921e-09
1.164103552e-07
2.807006376e-09
1.169203203e-07
2.675435883e-09
1.174073778e-07
2.526427635e-09
1.178734015e-07
2.364793435e-09
1.183206408e-07
2.194569906e-09
1.187515541e-07
2.019057205e-09
1.191686748e-07
1.840877372e-09
1.195745082e-07
1.662051241e-09
1.199714581e-07
1.484087028e-09
1.203617759e-07
1.30807092e-09
1.207475298e-07
1.134753114e-09
1.211305886e-07
9.646265962e-10
1.215126172e-07
7.979967627e-10
1.218950828e-07
6.350411541e-10
1.222792638e-07
4.758615283e-10
1.226662623e-07
3.20524276e-10
1.230570336e-07
1.690779675e-10
1.2345253e-07
2.146300748e-11
1.238532826e-07
-1.218663778e-10
1.242599993e-07
-2.611062608e-10
1.246734368e-07
-3.96022555e-10
1.250940514e-07
-5.264447501e-10
1.255223217e-07
-6.520140048e-10
1.259583708e-07
-7.724192683e-10
1.264020333e-07
-8.873567429e-10
1.268534365e-07
-9.964495554e-10
1.273125348e-07
-1.099257534e-09
1.277791792e-07
-1.195323705e-09
1.282531183e-07
-1.284186968e-09
1.28733992e-07
-1.36540727e-09
1.292213468e-07
-1.43855991e-09
1.297146424e-07
-1.503233767e-09
1.302132511e-07
-1.559040495e-09
1.307164604e-07
-1.605623951e-09
1.312234767e-07
-1.642666715e-09
1.317334313e-07
-1.669895449e-09
-1.687085839e-09
1.322453865e-07
1.093887365e-07
2.132788473e-10
1.095651835e-07
6.418309496e-10
1.098464864e-07
1.047652759e-09
1.102124072e-07
1.413169855e-09
1.106430271e-07
1.728094628e-09
1.111215766e-07
1.988932247e-09
1.116333235e-07
2.195246886e-09
1.121645859e-07
2.34773653e-09
1.127033585e-07
2.448450591e-09
1.132400672e-07
2.501072321e-09
1.137675599e-07
2.510380709e-09
1.142807656e-07
2.481562923e-09
1.147764401e-07
2.419873426e-09
1.152529552e-07
2.330491392e-09
1.157100261e-07
2.218365055e-09
1.161484062e-07
2.088047861e-09
1.165696051e-07
1.943594859e-09
1.169756497e-07
1.788525735e-09
1.17368881e-07
1.625826302e-09
1.177517874e-07
1.457971236e-09
1.181268747e-07
1.286964215e-09
1.184965704e-07
1.11439139e-09
1.188631593e-07
9.414819973e-10
1.192287423e-07
7.691699899e-10
1.195952147e-07
5.981541018e-10
1.199642587e-07
4.289526758e-10
1.203373498e-07
2.619498755e-10
1.207157776e-07
9.743371479e-11
1.211006596e-07
-6.435778217e-11
1.21492938e-07
-2.232005656e-10
1.218932751e-07
-3.788740333e-10
1.223024974e-07
-5.310887268e-10
1.227210382e-07
-6.796470767e-10
1.23149271e-07
-8.242553244e-10
1.235874107e-07
-9.64584481e-10
1.240356566e-07
-1.10026003e-09
1.244940993e-07
-1.23086202e-09
1.249626996e-07
-1.355957196e-09
1.254413223e-07
-1.475072321e-09
1.259297369e-07
-1.587672203e-09
1.264276221e-07
-1.693208932e-09
1.269345741e-07
-1.791139007e-09
1.274500964e-07
-1.880929425e-09
1.279735967e-07
-1.962060072e-09
1.28504391e-07
-2.03402802e-09
1.290417072e-07
-2.096356563e-09
1.295846885e-07
-2.148605225e-09
1.301323999e-07
-2.190377973e-09
1.306838345e-07
-2.221329865e-09
-2.241172793e-09
1.312379217e-07
1.093748748e-07
1.68404399e-10
1.095100146e-07
5.066915989e-10
1.097284969e-07
8.291708704e-10
1.100184256e-07
1.123241316e-09
1.103661881e-07
1.380332294e-09
1.107588889e-07
1.596231525e-09
1.111847858e-07
1.769349934e-09
1.116330948e-07
1.89942746e-09
1.120942013e-07
1.987344104e-09
1.125600658e-07
2.03520767e-09
1.130243408e-07
2.046105686e-09
1.13482233e-07
2.023670766e-09
1.139303439e-07
1.971762599e-09
1.143665406e-07
1.894294828e-09
1.147898035e-07
1.795102366e-09
1.152000382e-07
1.677813481e-09
1.155978806e-07
1.545752828e-09
1.159845174e-07
1.401889385e-09
1.16361526e-07
1.248817997e-09
1.167307359e-07
1.088761615e-09
1.170941107e-07
9.235895282e-10
1.174536549e-07
7.548472453e-10
1.178113425e-07
5.83794373e-10
1.181690647e-07
4.114476433e-10
1.185285894e-07
2.386292634e-10
1.188915536e-07
6.598841243e-11
1.192594405e-07
-1.059371175e-10
1.196335602e-07
-2.766860207e-10
1.200150524e-07
-4.458500601e-10
1.204049104e-07
-6.130586805e-10
1.208039916e-07
-7.779552106e-10
1.21213068e-07
-9.401651942e-10
1.2163272e-07
-1.099299124e-09
1.220634111e-07
-1.254946461e-09
1.225054855e-07
-1.406658929e-09
1.229591723e-07
-1.553947026e-09
1.234245872e-07
-1.696277015e-09
1.239017141e-07
-1.833084353e-09
1.243904143e-07
-1.963772662e-09
1.248904542e-07
-2.087712308e-09
1.25401502e-07
-2.204256813e-09
1.259231192e-07
-2.31275614e-09
1.264547548e-07
-2.412565011e-09
1.269957461e-07
-2.503051203e-09
1.275453228e-07
-2.583604591e-09
1.281026135e-07
-2.653647165e-09
1.286666517e-07
-2.712643309e-09
1.29236383e-07
-2.760109204e-09
1.298106743e-07
-2.795621002e-09
-2.818821782e-09
1.303883235e-07
1.093655152e-07
1.328894905e-10
1.094726034e-07
3.996038119e-10
1.096470311e-07
6.547433572e-10
1.098811822e-07
8.890904562e-10
1.101656681e-07
1.095846521e-09
1.104909427e-07
1.270956998e-09
1.108479957e-07
1.412297033e-09
1.112284577e-07
1.518965452e-09
1.116247248e-07
1.591077056e-09
1.12030198e-07
1.629734523e-09
1.124394375e-07
1.636866253e-09
1.128481589e-07
1.614949406e-09
1.132531575e-07
1.566764148e-09
1.136522225e-07
1.495230089e-09
1.140440378e-07
1.403287387e-09
1.144280594e-07
1.293792238e-09
1.148043806e-07
1.169431952e-09
1.151736017e-07
1.032668639e-09
1.155367102e-07
8.857097037e-10
1.15894973e-07
7.304990064e-10
1.162498408e-07
5.687217288e-10
1.166028689e-07
4.01819167e-10
1.16955651e-07
2.310122432e-10
1.173097886e-07
5.730993868e-11
1.176668008e-07
-1.183829982e-10
1.180281496e-07
-2.953605032e-10
1.183951901e-07
-4.729776632e-10
1.187691726e-07
-6.506685386e-10
1.191512405e-07
-8.279180609e-10
1.195424174e-07
-1.004235616e-09
1.199436012e-07
-1.179139003e-09
1.203555728e-07
-1.352136821e-09
1.207789914e-07
-1.522717797e-09
1.212143919e-07
-1.690347002e-09
1.216621858e-07
-1.854452987e-09
1.221226615e-07
-2.014422885e-09
1.225959872e-07
-2.169602917e-09
1.23082206e-07
-2.319303367e-09
1.235812358e-07
-2.462802651e-09
1.240928741e-07
-2.599350751e-09
1.246167947e-07
-2.72817748e-09
1.251525431e-07
-2.848504508e-09
1.256995353e-07
-2.959557202e-09
1.262570602e-07
-3.060575917e-09
1.26824283e-07
-3.150827276e-09
1.274002517e-07
-3.229615779e-09
1.279839042e-07
-3.29629555e-09
1.285740767e-07
-3.3502815e-09
1.291695152e-07
-3.39105937e-09
-3.418194302e-09
1.297688878e-07
1.093588057e-07
1.040840312e-10
1.094455862e-07
3.128235192e-10
1.095875602e-07
5.127695813e-10
1.097796611e-07
6.969897623e-10
1.100154076e-07
8.601001472e-10
1.102878582e-07
9.985064677e-10
1.105901691e-07
1.109986253e-09
1.109158143e-07
1.193320318e-09
1.112587395e-07
1.248151976e-09
1.116135483e-07
1.274925917e-09
1.119756488e-07
1.274765905e-09
1.123413039e-07
1.249294526e-09
1.127076103e-07
1.200457985e-09
1.130724501e-07
1.130390565e-09
1.13434427e-07
1.041310849e-09
1.137927866e-07
9.354329316e-10
1.141473224e-07
8.148964221e-10
1.144982788e-07
6.817124804e-10
1.148462644e-07
5.377242279e-10
1.151921664e-07
3.845971002e-10
1.155370676e-07
2.238204926e-10
1.158822012e-07
5.668551941e-11
1.162288614e-07
-1.156481098e-10
1.165783726e-07
-2.922013182e-10
1.169320834e-07
-4.720939031e-10
1.172912862e-07
-6.545633237e-10
1.176572297e-07
-8.389212946e-10
1.180310949e-07
-1.024533767e-09
1.184139801e-07
-1.210803386e-09
1.188068945e-07
-1.397150019e-09
1.192107498e-07
-1.58299435e-09
1.196263565e-07
-1.767743565e-09
1.200544187e-07
-1.950779998e-09
1.20495525e-07
-2.131453406e-09
1.209501456e-07
-2.309073674e-09
1.214186292e-07
-2.482906667e-09
1.219011999e-07
-2.652173825e-09
1.22397951e-07
-2.816054696e-09
1.229088396e-07
-2.973691445e-09
1.234336835e-07
-3.124194727e-09
1.239721584e-07
-3.266652408e-09
1.245237953e-07
-3.400141457e-09
1.250879793e-07
-3.523741071e-09
1.256639496e-07
-3.636546062e-09
1.262508031e-07
-3.737680634e-09
1.268475001e-07
-3.826312651e-09
1.274528727e-07
-3.901668023e-09
1.280656359e-07
-3.963044422e-09
1.286844004e-07
-4.00982365e-09
-4.041482211e-09
1.293076883e-07
1.093537703e-07
8.031388051e-11
1.094253545e-07
2.412395416e-10
1.095428621e-07
3.952621144e-10
1.097028199e-07
5.370320791e-10
1.099006627e-07
6.622574474e-10
1.101313063e-07
7.678630726e-10
1.103895526e-07
8.517401172e-10
1.106703231e-07
9.125500215e-10
1.109688222e-07
9.496530817e-10
1.112806905e-07
9.630578722e-10
1.116021247e-07
9.533319491e-10
1.11929941e-07
9.214785461e-10
1.122615864e-07
8.688128828e-10
1.125951208e-07
7.968564363e-10
1.129291801e-07
7.07251891e-10
1.132629279e-07
6.016854262e-10
1.135959937e-07
4.81830795e-10
1.139284057e-07
3.493006081e-10
1.142605163e-07
2.056135809e-10
1.145929679e-07
5.214551421e-11
1.149265685e-07
-1.097801551e-10
1.152622984e-07
-2.790444964e-10
1.156012513e-07
-4.546010799e-10
1.159445699e-07
-6.35520066e-10
1.162934387e-07
-8.209628224e-10
1.166490393e-07
-1.010164043e-09
1.170125338e-07
-1.202415905e-09
1.173850481e-07
-1.397048218e-09
1.17767656e-07
-1.593411368e-09
1.181613662e-07
-1.790860295e-09
1.185671114e-07
-1.988739639e-09
1.189857386e-07
-2.186370761e-09
1.194179996e-07
-2.383040983e-09
1.198645415e-07
-2.577995395e-09
1.203258986e-07
-2.770430819e-09
1.208024838e-07
-2.959492003e-09
1.212945806e-07
-3.144270768e-09
1.21802334e-07
-3.323808201e-09
1.22325742e-07
-3.497099595e-09
1.22864649e-07
-3.663101791e-09
1.234187397e-07
-3.820743134e-09
1.239875345e-07
-3.968936169e-09
1.245703859e-07
-4.106592399e-09
1.251664784e-07
-4.232638404e-09
1.257748309e-07
-4.346032933e-09
1.26394303e-07
-4.445784624e-09
1.270236049e-07
-4.53096981e-09
1.276613102e-07
-4.600749635e-09
1.283058723e-07
-4.654385597e-09
-4.691252807e-09
1.28955643e-07
1.093499005e-07
6.041343198e-11
1.094098213e-07
1.813188947e-10
1.095084389e-07
2.966445944e-10
1.096433008e-07
4.021702644e-10
1.098111243e-07
4.944341342e-10
1.100081573e-07
5.708302812e-10
1.102304609e-07
6.294367861e-10
1.104741032e-07
6.689079452e-10
1.107353065e-07
6.884500809e-10
1.110105726e-07
6.877921722e-10
1.11296784e-07
6.671208853e-10
1.115912683e-07
6.269945093e-10
1.118918269e-07
5.682546332e-10
1.121967378e-07
4.919458882e-10
1.125047433e-07
3.992466008e-10
1.128150193e-07
2.914096972e-10
1.131270859e-07
1.697642203e-10
1.134408961e-07
3.549050174e-11
1.137566289e-07
-1.101192256e-10
1.140747338e-07
-2.659595496e-10
1.143958835e-07
-4.309298873e-10
1.147208807e-07
-6.04041899e-10
1.150506597e-07
-7.843802398e-10
1.153862378e-07
-9.710983782e-10
1.157286874e-07
-1.163412593e-09
1.16079111e-07
-1.360587818e-09
1.164386184e-07
-1.561923506e-09
1.16808308e-07
-1.766737969e-09
1.171892497e-07
-1.974353206e-09
1.175824699e-07
-2.184080613e-09
1.179889378e-07
-2.395207527e-09
1.184095521e-07
-2.606985069e-09
1.188451289e-07
-2.818617719e-09
1.192963885e-07
-3.029254984e-09
1.19763943e-07
-3.237985291e-09
1.202482832e-07
-3.443832258e-09
1.207497662e-07
-3.645753814e-09
1.212686023e-07
-3.842644418e-09
1.218048431e-07
-4.033340414e-09
1.223583697e-07
-4.216628416e-09
1.229288833e-07
-4.391256761e-09
1.235158973e-07
-4.555950044e-09
1.241187313e-07
-4.709426427e-09
1.247365102e-07
-4.850417174e-09
1.253681653e-07
-4.977687801e-09
1.26012441e-07
-5.090060167e-09
1.26667906e-07
-5.18643477e-09
1.273329687e-07
-5.265812326e-09
1.280058967e-07
-5.327313593e-09
-5.370196359e-09
1.286848403e-07
1.093468545e-07
4.355898117e-11
1.093976008e-07
1.305726329e-10
1.094812924e-07
2.129530478e-10
1.095961611e-07
2.87301703e-10
1.097398105e-07
3.507849039e-10
1.099094514e-07
4.011896617e-10
1.101020943e-07
4.367940831e-10
1.103146987e-07
4.563038728e-10
1.10544294e-07
4.588551408e-10
1.107880845e-07
4.440020724e-10
1.110435356e-07
4.116701531e-10
1.113084338e-07
3.620966959e-10
1.1158092e-07
2.957687119e-10
1.11859499e-07
2.133671573e-10
1.121430379e-07
1.157078876e-10
1.124308907e-07
3.557058081e-12
1.127224369e-07
-1.217818483e-10
1.130176167e-07
-2.596892673e-10
1.133165569e-07
-4.090595428e-10
1.136195911e-07
-5.68993801e-10
1.139272755e-07
-7.38614522e-10
1.142403172e-07
-9.170837923e-10
1.145595487e-07
-1.103611866e-09
1.14885903e-07
-1.297452934e-09
1.152203875e-07
-1.497897409e-09
1.155640602e-07
-1.704260787e-09
1.159180079e-07
-1.915871513e-09
1.162833278e-07
-2.132058019e-09
1.166611097e-07
-2.352135185e-09
1.170524199e-07
-2.575390886e-09
1.174582855e-07
-2.801073102e-09
1.178796785e-07
-3.028377957e-09
1.183175e-07
-3.256439127e-09
1.187725641e-07
-3.484319059e-09
1.192455813e-07
-3.711002371e-09
1.197371408e-07
-3.935391759e-09
1.202476938e-07
-4.156306832e-09
1.207775356e-07
-4.372486235e-09
1.213267885e-07
-4.582593345e-09
1.218953857e-07
-4.785225676e-09
1.224830571e-07
-4.978928094e-09
1.230893169e-07
-5.162209839e-09
1.237134557e-07
-5.33356513e-09
1.243545355e-07
-5.491496894e-09
1.250113907e-07
-5.634542953e-09
1.256826344e-07
-5.761303793e-09
1.263666706e-07
-5.87047088e-09
1.270617126e-07
-5.960854285e-09
1.277658072e-07
-6.031408213e-09
-6.081253025e-09
1.284768638e-07
1.093444008e-07
2.915815508e-11
1.093877706e-07
8.720285772e-11
1.094594213e-07
1.413024771e-10
1.095580574e-07
1.886656745e-10
1.096819081e-07
2.269344073e-10
1.098288833e-07
2.542146419e-10
1.099967064e-07
2.689713139e-10
1.101830248e-07
2.699857961e-10
1.103855069e-07
2.563733467e-10
1.106019296e-07
2.275797111e-10
1.108302498e-07
1.833503078e-10
1.110686573e-07
1.236895337e-10
1.113156127e-07
4.881363599e-11
1.115698671e-07
-4.088704487e-11
1.118304651e-07
-1.44889869e-10
1.120966129e-07
-2.625906089e-10
1.123680913e-07
-3.932602111e-10
1.126446551e-07
-5.362530615e-10
1.129264323e-07
-6.908367962e-10
1.132137263e-07
-8.562879436e-10
1.135070199e-07
-1.031908257e-09
1.138069574e-07
-1.217021498e-09
1.141143189e-07
-1.410973674e-09
1.144299956e-07
-1.613129887e-09
1.147549662e-07
-1.822868304e-09
1.150902767e-07
-2.039571611e-09
1.154370214e-07
-2.262616412e-09
1.157963244e-07
-2.491361235e-09
1.161693228e-07
-2.725133638e-09
1.16557149e-07
-2.963216992e-09
1.169609134e-07
-3.204837418e-09
1.173816869e-07
-3.449151343e-09
1.17820482e-07
-3.695234136e-09
1.182782333e-07
-3.942070327e-09
1.187557769e-07
-4.188545907e-09
1.192538284e-07
-4.433443231e-09
1.197729606e-07
-4.67543904e-09
1.203135805e-07
-4.913106139e-09
1.208759064e-07
-5.144919189e-09
1.214599457e-07
-5.369265024e-09
1.220654753e-07
-5.584457714e-09
1.226920239e-07
-5.788758477e-09
1.233388591e-07
-5.980400314e-09
1.240049793e-07
-6.157616963e-09
1.246891118e-07
-6.318675457e-09
1.253897193e-07
-6.461911225e-09
1.261050127e-07
-6.585764358e-09
1.268329739e-07
-6.688815393e-09
1.275713844e-07
-6.769818712e-09
-6.827731489e-09
1.283178629e-07
1.09342377e-07
1.678117707e-11
1.093796909e-07
4.988894841e-11
1.094414303e-07
7.956303584e-11
1.09526634e-07
1.034620751e-10
1.096339792e-07
1.195893884e-10
1.09761888e-07
1.263060261e-10
1.099086258e-07
1.222337224e-10
1.100723762e-07
1.06235758e-10
1.102513062e-07
7.744367232e-11
1.104436554e-07
3.523083553e-11
1.106477905e-07
-2.078447397e-11
1.108622458e-07
-9.076552881e-11
1.110857577e-07
-1.746980458e-10
1.113172868e-07
-2.724159064e-10
1.115560289e-07
-3.836318514e-10
1.118014103e-07
-5.079719035e-10
1.120531424e-07
-6.44992278e-10
1.12311095e-07
-7.942056787e-10
1.125753651e-07
-9.551068599e-10
1.128462498e-07
-1.127172778e-09
1.131242208e-07
-1.309879382e-09
1.134099054e-07
-1.502706314e-09
1.137040677e-07
-1.705136213e-09
1.140075895e-07
-1.916651951e-09
1.143214525e-07
-2.136731597e-09
1.146467212e-07
-2.36484059e-09
1.149845261e-07
-2.600421424e-09
1.153360465e-07
-2.842881698e-09
1.15702494e-07
-3.091581107e-09
1.160850948e-07
-3.345817731e-09
1.164850715e-07
-3.604814088e-09
1.169036237e-07
-3.867703436e-09
1.173419065e-07
-4.133516848e-09
1.178010078e-07
-4.40117164e-09
1.182819237e-07
-4.669461768e-09
1.187855314e-07
-4.93705089e-09
1.193125611e-07
-5.202468817e-09
1.198635671e-07
-5.464112084e-09
1.204388972e-07
-5.720249331e-09
1.210386643e-07
-5.969032145e-09
1.216627185e-07
-6.208511865e-09
1.223106226e-07
-6.436662635e-09
1.229816331e-07
-6.651410762e-09
1.236746862e-07
-6.850670051e-09
1.243883932e-07
-7.032382423e-09
1.251210445e-07
-7.19456253e-09
1.258706248e-07
-7.335344554e-09
1.266348383e-07
-7.453028953e-09
1.274111461e-07
-7.54612663e-09
-7.61339765e-09
1.281968122e-07
1.093406816e-07
6.099548453e-12
1.093729286e-07
1.764190636e-11
1.094263522e-07
2.613939632e-11
1.095002365e-07
2.957784072e-11
1.09593587e-07
2.623892315e-11
1.097051911e-07
1.470211773e-11
1.09833721e-07
-6.295932719e-12
1.099778002e-07
-3.78431839e-11
1.101359773e-07
-8.073315395e-11
1.103068697e-07
-1.356612496e-10
1.104891751e-07
-2.030896831e-10
1.106817197e-07
-2.833099332e-10
1.108834863e-07
-3.764644949e-10
1.110936371e-07
-4.82566575e-10
1.113115276e-07
-6.015222827e-10
1.115367101e-07
-7.331542925e-10
1.11768937e-07
-8.772191631e-10
1.120081562e-07
-1.033424868e-09
1.122545028e-07
-1.201453416e-09
1.125082934e-07
-1.380963452e-09
1.127700109e-07
-1.571596879e-09
1.130402897e-07
-1.772985286e-09
1.133199041e-07
-1.984750822e-09
1.136097546e-07
-2.206502636e-09
1.139108537e-07
-2.437830946e-09
1.14224312e-07
-2.678298955e-09
1.145513229e-07
-2.927432421e-09
1.148931484e-07
-3.184707224e-09
1.152511028e-07
-3.449535482e-09
1.156265357e-07
-3.721250599e-09
1.160208132e-07
-3.999091648e-09
1.164352974e-07
-4.282187568e-09
1.168713223e-07
-4.569541769e-09
1.173301684e-07
-4.860017784e-09
1.178130333e-07
-5.152326738e-09
1.183209999e-07
-5.445017501e-09
1.188550016e-07
-5.736470476e-09
1.194157856e-07
-6.024896006e-09
1.200038747e-07
-6.308338407e-09
1.206195292e-07
-6.584686574e-09
1.212627094e-07
-6.85169207e-09
1.219330422e-07
-7.106995357e-09
1.226297919e-07
-7.348160478e-09
1.2335184e-07
-7.572718069e-09
1.240976735e-07
-7.778216011e-09
1.248653873e-07
-7.962276336e-09
1.256526989e-07
-8.122656083e-09
1.26456979e-07
-8.257309037e-09
1.27275297e-07
-8.364444765e-09
-8.442581029e-09
1.281044801e-07
1.093392819e-07
-3.182355275e-12
1.093672143e-07
-1.029063919e-11
1.094135255e-07
-2.017186842e-11
1.094776802e-07
-3.457681501e-11
1.095589278e-07
-5.500864442e-11
1.096563727e-07
-8.274256448e-11
1.097689863e-07
-1.189093406e-10
1.098956468e-07
-1.645035146e-10
1.100352692e-07
-2.20355384e-10
1.101867616e-07
-2.87153446e-10
1.103490996e-07
-3.654275994e-10
1.105213556e-07
-4.555657942e-10
1.107027239e-07
-5.578327316e-10
1.108925429e-07
-6.723856078e-10
1.110903105e-07
-7.992898235e-10
1.112956919e-07
-9.385356208e-10
1.115085263e-07
-1.090053472e-09
1.117288295e-07
-1.253727946e-09
1.119567863e-07
-1.429410139e-09
1.121927475e-07
-1.616924613e-09
1.124372247e-07
-1.816074108e-09
1.126908823e-07
-2.026642949e-09
1.129545282e-07
-2.248396864e-09
1.132291046e-07
-2.481079087e-09
1.135156774e-07
-2.724403844e-09
1.138154259e-07
-2.978047562e-09
1.141296311e-07
-3.241637626e-09
1.144596627e-07
-3.514738853e-09
1.148069652e-07
-3.796838091e-09
1.151730418e-07
-4.087327289e-09
1.155594355e-07
-4.385485413e-09
1.159677075e-07
-4.69045966e-09
1.163994122e-07
-5.001246557e-09
1.16856068e-07
-5.316673699e-09
1.173391243e-07
-5.635383008e-09
1.178499233e-07
-5.955816546e-09
1.18389659e-07
-6.27620609e-09
1.18959331e-07
-6.594567811e-09
1.195596961e-07
-6.908703436e-09
1.201912191e-07
-7.216209335e-09
1.20854022e-07
-7.514494928e-09
1.215478383e-07
-7.800811678e-09
1.222719714e-07
-8.072293506e-09
1.230252622e-07
-8.326008845e-09
1.2380607e-07
-8.559023733e-09
1.24612268e-07
-8.768474457e-09
1.254412589e-07
-8.951647041e-09
1.262900092e-07
-9.106059562e-09
1.271551065e-07
-9.229542191e-09
-9.320309222e-09
1.280328345e-07
1.093380979e-07
-1.128030829e-11
1.093622863e-07
-3.447915654e-11
1.094023973e-07
-6.028298706e-11
1.094580382e-07
-9.021765215e-11
1.095286445e-07
-1.256148855e-10
1.09613525e-07
-1.676229153e-10
1.097118904e-07
-2.172746019e-10
1.098228945e-07
-2.755074187e-10
1.09945681e-07
-3.431418246e-10
1.100794009e-07
-4.208732136e-10
1.102232503e-07
-5.092770843e-10
1.103765021e-07
-6.088175221e-10
1.105385282e-07
-7.198588921e-10
1.1070882e-07
-8.426774697e-10
1.108870034e-07
-9.774731231e-10
1.110728494e-07
-1.124381602e-09
1.112662825e-07
-1.283486517e-09
1.114673846e-07
-1.454829822e-09
1.116763952e-07
-1.638420614e-09
1.118937122e-07
-1.8342415e-09
1.121198901e-07
-2.042251954e-09
1.123556366e-07
-2.262389437e-09
1.126018078e-07
-2.494568072e-09
1.12859403e-07
-2.738674286e-09
1.131295587e-07
-2.994559566e-09
1.134135417e-07
-3.262030556e-09
1.137127405e-07
-3.540836551e-09
1.140286559e-07
-3.830654424e-09
1.143628889e-07
-4.131071189e-09
1.147171258e-07
-4.441564464e-09
1.150931214e-07
-4.761481136e-09
1.154926762e-07
-5.090014655e-09
1.15917611e-07
-5.426181515e-09
1.163697349e-07
-5.768797727e-09
1.168508082e-07
-6.116456257e-09
1.173624985e-07
-6.467506666e-09
1.17906331e-07
-6.820038396e-09
1.184836328e-07
-7.171869463e-09
1.190954721e-07
-7.520542517e-09
1.197425933e-07
-7.863330329e-09
1.204253513e-07
-8.197252849e-09
1.211436475e-07
-8.519107858e-09
1.218968709e-07
-8.825516927e-09
1.226838497e-07
-9.112987629e-09
1.235028178e-07
-9.377991818e-09
1.243514018e-07
-9.617058475e-09
1.252266326e-07
-9.826877955e-09
1.261249854e-07
-1.00044125e-08
1.270424489e-07
-1.014700599e-08
-1.025248449e-08
1.279746239e-07