/*--------------------------------*- C++ -*----------------------------------*\
| =========                 |                                                 |
| \\      /  F ield         | foam-extend: Open Source CFD                    |
|  \\    /   O peration     | Version:     4.1                                |
|   \\  /    A nd           | Web:         http://www.foam-extend.org         |
|    \\/     M anipulation  |                                                 |
\*---------------------------------------------------------------------------*/
FoamFile
{
    version     2.0;
    format      ascii;
    class       volVectorField;
    location    "60000";
    object      U;
}
// * * * * * * * * * * * * * * * * * * * * * * * * * * * * * * * * * * * * * //

dimensions      [0 1 -1 0 0 0 0];

internalField   nonuniform List<vector> 
15920
(
(0.0002132445226 5.114338303e-06 0)
(0.0002058699001 1.129073638e-05 0)
(0.0001957817971 1.369818519e-05 0)
(0.00018229166 1.417140321e-05 0)
(0.0001679348347 1.371627506e-05 0)
(0.0001543627936 1.264062749e-05 0)
(0.0001418386207 1.112916596e-05 0)
(0.0001302806838 9.405903209e-06 0)
(0.0001197624998 7.66877087e-06 0)
(0.0001104040562 6.044037228e-06 0)
(0.0001022305303 4.599448353e-06 0)
(9.518054936e-05 3.366382222e-06 0)
(8.91613898e-05 2.350847795e-06 0)
(8.40743109e-05 1.540377837e-06 0)
(7.981703354e-05 9.11686386e-07 0)
(7.628555965e-05 4.372454178e-07 0)
(7.337934882e-05 8.940885403e-08 0)
(7.100559583e-05 -1.573663765e-07 0)
(6.90810215e-05 -3.254160018e-07 0)
(6.753223011e-05 -4.334920666e-07 0)
(6.629557342e-05 -4.968756298e-07 0)
(6.531673053e-05 -5.277489509e-07 0)
(6.455001299e-05 -5.356558678e-07 0)
(6.395747875e-05 -5.27959762e-07 0)
(6.350797943e-05 -5.102671131e-07 0)
(6.317615143e-05 -4.867321623e-07 0)
(6.294113117e-05 -4.601867512e-07 0)
(6.278677106e-05 -4.319835653e-07 0)
(6.270033851e-05 -4.030672682e-07 0)
(6.267531906e-05 -3.74710347e-07 0)
(6.270056854e-05 -3.514442773e-07 0)
(6.276861787e-05 -3.317757836e-07 0)
(6.287436054e-05 -3.137243637e-07 0)
(6.301373511e-05 -2.969615532e-07 0)
(6.318295482e-05 -2.817149697e-07 0)
(6.337860703e-05 -2.679748497e-07 0)
(6.359768793e-05 -2.55487236e-07 0)
(6.383737749e-05 -2.439518199e-07 0)
(6.409522958e-05 -2.333868237e-07 0)
(6.436889903e-05 -2.233335754e-07 0)
(6.465579303e-05 -2.13249592e-07 0)
(6.49530903e-05 -2.02914574e-07 0)
(6.525789543e-05 -1.922549533e-07 0)
(6.556727893e-05 -1.811536012e-07 0)
(6.587824563e-05 -1.694517983e-07 0)
(6.618772532e-05 -1.570037117e-07 0)
(6.64925939e-05 -1.436963364e-07 0)
(6.6789699e-05 -1.294467518e-07 0)
(6.707588039e-05 -1.14198355e-07 0)
(6.734799005e-05 -9.792046346e-08 0)
(0.00022011743 5.634907351e-06 0)
(0.0002251682172 1.291283794e-05 0)
(0.0002303488235 1.655757204e-05 0)
(0.0002340498037 1.847501784e-05 0)
(0.0002359942662 1.956914317e-05 0)
(0.0002364095123 1.996378828e-05 0)
(0.000235476465 1.970461237e-05 0)
(0.0002333570087 1.893496564e-05 0)
(0.0002302810902 1.78130127e-05 0)
(0.0002265108615 1.64611991e-05 0)
(0.0002222829067 1.497431468e-05 0)
(0.000217790199 1.343204823e-05 0)
(0.0002131885701 1.189995547e-05 0)
(0.0002086033334 1.042757241e-05 0)
(0.0002041310969 9.049012154e-06 0)
(0.0001998415621 7.785333279e-06 0)
(0.0001957815008 6.647081844e-06 0)
(0.0001919795626 5.636622757e-06 0)
(0.00018845054 4.750312318e-06 0)
(0.0001851988492 3.980444887e-06 0)
(0.0001822214053 3.316862538e-06 0)
(0.0001795099735 2.748199732e-06 0)
(0.0001770530084 2.262802001e-06 0)
(0.0001748370132 1.84937234e-06 0)
(0.0001728475751 1.497405086e-06 0)
(0.0001710701455 1.197417644e-06 0)
(0.0001694905467 9.410289401e-07 0)
(0.0001680952731 7.21089218e-07 0)
(0.0001668707725 5.314357356e-07 0)
(0.0001658039628 3.669682448e-07 0)
(0.0001648811751 2.226320708e-07 0)
(0.0001640947379 9.540556078e-08 0)
(0.0001634348827 -1.686951013e-08 0)
(0.0001628917328 -1.162175487e-07 0)
(0.000162456566 -2.043942616e-07 0)
(0.0001621214914 -2.827284235e-07 0)
(0.0001618790683 -3.522232838e-07 0)
(0.0001617218389 -4.136477739e-07 0)
(0.0001616430729 -4.679316984e-07 0)
(0.0001616363242 -5.152086887e-07 0)
(0.0001616947217 -5.552053033e-07 0)
(0.0001618113609 -5.878064e-07 0)
(0.0001619796931 -6.130173134e-07 0)
(0.0001621934441 -6.308554584e-07 0)
(0.0001624464429 -6.413340572e-07 0)
(0.0001627325776 -6.444743527e-07 0)
(0.0001630458132 -6.40312287e-07 0)
(0.0001633802032 -6.289033676e-07 0)
(0.000163729888 -6.103263813e-07 0)
(0.0001640890947 -5.846883291e-07 0)
(0.0002187791094 1.462377957e-06 0)
(0.0002200402963 4.373326322e-06 0)
(0.0002226250882 6.988020048e-06 0)
(0.0002259694363 9.320496072e-06 0)
(0.0002295405405 1.139265676e-05 0)
(0.0002331068919 1.308917764e-05 0)
(0.0002365016578 1.431437115e-05 0)
(0.0002395339394 1.506453879e-05 0)
(0.0002420568839 1.538578143e-05 0)
(0.0002440037363 1.533632522e-05 0)
(0.000245368306 1.497975367e-05 0)
(0.0002461798482 1.438461311e-05 0)
(0.0002464904828 1.361901722e-05 0)
(0.000246367023 1.274425607e-05 0)
(0.000245882476 1.181133946e-05 0)
(0.0002451089845 1.086040668e-05 0)
(0.0002441135893 9.921484922e-06 0)
(0.0002429562376 9.015710162e-06 0)
(0.0002416889907 8.156774153e-06 0)
(0.0002403559032 7.352460529e-06 0)
(0.0002389933911 6.606101666e-06 0)
(0.0002376309354 5.917841461e-06 0)
(0.0002362919476 5.285670228e-06 0)
(0.0002349946708 4.706239838e-06 0)
(0.0002337530203 4.175487958e-06 0)
(0.000232577324 3.689069533e-06 0)
(0.000231474991 3.242609978e-06 0)
(0.0002304510399 2.831803496e-06 0)
(0.0002295085129 2.452729339e-06 0)
(0.0002286490437 2.10212001e-06 0)
(0.0002278735515 1.778154483e-06 0)
(0.0002271823424 1.478208648e-06 0)
(0.0002265743525 1.199877206e-06 0)
(0.0002260477773 9.414221625e-07 0)
(0.0002256006173 7.015576842e-07 0)
(0.0002252305626 4.793034564e-07 0)
(0.0002249348079 2.738210165e-07 0)
(0.0002247099036 8.396999375e-08 0)
(0.0002245521022 -8.95895932e-08 0)
(0.0002244581522 -2.468358646e-07 0)
(0.0002244246367 -3.883594507e-07 0)
(0.0002244477172 -5.14477635e-07 0)
(0.0002245235577 -6.252079684e-07 0)
(0.0002246482799 -7.205094977e-07 0)
(0.0002248178521 -8.00377869e-07 0)
(0.0002250280745 -8.648382981e-07 0)
(0.0002252746011 -9.13937143e-07 0)
(0.0002255529625 -9.477508781e-07 0)
(0.0002258585843 -9.664001337e-07 0)
(0.0002261868058 -9.700570447e-07 0)
(0.0002187707068 1.479017643e-06 0)
(0.0002194990046 4.301508954e-06 0)
(0.0002207786199 6.687827859e-06 0)
(0.0002224253871 8.524996748e-06 0)
(0.0002242800233 9.90719819e-06 0)
(0.000226308595 1.093752127e-05 0)
(0.0002285053345 1.166350769e-05 0)
(0.0002308135328 1.211761626e-05 0)
(0.0002331459442 1.233709503e-05 0)
(0.0002354242343 1.235731961e-05 0)
(0.0002375884379 1.22081556e-05 0)
(0.0002395923001 1.191722952e-05 0)
(0.000241402324 1.151196812e-05 0)
(0.0002429993767 1.101874055e-05 0)
(0.0002443780951 1.046165862e-05 0)
(0.0002455440904 9.862040819e-06 0)
(0.0002465107536 9.238229407e-06 0)
(0.0002472965369 8.605460591e-06 0)
(0.0002479227441 7.975838112e-06 0)
(0.0002484117447 7.358496202e-06 0)
(0.000248785628 6.75992319e-06 0)
(0.0002490653006 6.184366759e-06 0)
(0.0002492699553 5.634259516e-06 0)
(0.0002494168119 5.110629342e-06 0)
(0.0002495210422 4.613465726e-06 0)
(0.0002495958206 4.142053048e-06 0)
(0.0002496524653 3.695250313e-06 0)
(0.0002497006105 3.271708636e-06 0)
(0.0002497483931 2.870093256e-06 0)
(0.0002498026425 2.489227075e-06 0)
(0.000249869107 2.128125009e-06 0)
(0.0002499525991 1.785632776e-06 0)
(0.0002500570117 1.460745092e-06 0)
(0.0002501854394 1.152790852e-06 0)
(0.0002503403899 8.61281116e-07 0)
(0.0002505236666 5.860504328e-07 0)
(0.0002507365099 3.272439457e-07 0)
(0.0002509781271 8.557854867e-08 0)
(0.0002512505837 -1.385625938e-07 0)
(0.0002515534801 -3.454097663e-07 0)
(0.0002518861183 -5.35293464e-07 0)
(0.0002522482519 -7.081585772e-07 0)
(0.0002526392145 -8.63686796e-07 0)
(0.000253057795 -1.001511277e-06 0)
(0.0002535024362 -1.121292527e-06 0)
(0.0002539713387 -1.222722988e-06 0)
(0.0002544624708 -1.305533469e-06 0)
(0.0002549735665 -1.369509541e-06 0)
(0.000255502141 -1.414508186e-06 0)
(0.0002560455172 -1.440467171e-06 0)
(0.0002187114542 1.024778633e-06 0)
(0.0002191179938 2.9784969e-06 0)
(0.000219935067 4.712179732e-06 0)
(0.0002210808681 6.167193466e-06 0)
(0.0002224206753 7.355688491e-06 0)
(0.0002238719125 8.302173141e-06 0)
(0.0002253997459 9.014174529e-06 0)
(0.0002269759149 9.498518086e-06 0)
(0.0002285674769 9.775241264e-06 0)
(0.000230146493 9.87267941e-06 0)
(0.0002316938148 9.81930314e-06 0)
(0.000233195101 9.64139062e-06 0)
(0.0002346379937 9.363459217e-06 0)
(0.0002360126204 9.00809883e-06 0)
(0.0002373126071 8.595347474e-06 0)
(0.0002385350679 8.142383904e-06 0)
(0.0002396800248 7.663566103e-06 0)
(0.0002407498435 7.170591171e-06 0)
(0.0002417487551 6.672687871e-06 0)
(0.0002426823676 6.176862514e-06 0)
(0.000243557171 5.688201419e-06 0)
(0.0002443801018 5.210198014e-06 0)
(0.0002451581983 4.745072449e-06 0)
(0.0002458983474 4.294066691e-06 0)
(0.0002466071074 3.857707313e-06 0)
(0.0002472905938 3.436035e-06 0)
(0.0002479544194 3.0287934e-06 0)
(0.0002486036695 2.635574485e-06 0)
(0.0002492429028 2.255932341e-06 0)
(0.0002498761773 1.889464917e-06 0)
(0.0002505071184 1.535854996e-06 0)
(0.0002511389555 1.194974967e-06 0)
(0.0002517744334 8.667508189e-07 0)
(0.0002524160479 5.513420799e-07 0)
(0.0002530649584 2.491149663e-07 0)
(0.0002537230409 -3.956863079e-08 0)
(0.0002543920459 -3.142238975e-07 0)
(0.0002550754208 -5.738013131e-07 0)
(0.0002557732892 -8.185933821e-07 0)
(0.000256485862 -1.048279733e-06 0)
(0.0002572135724 -1.261864943e-06 0)
(0.0002579566971 -1.458389781e-06 0)
(0.0002587150566 -1.637060148e-06 0)
(0.0002594880694 -1.797151112e-06 0)
(0.0002602749046 -1.937968071e-06 0)
(0.0002610745399 -2.05886375e-06 0)
(0.0002618857511 -2.159261387e-06 0)
(0.000262707105 -2.238669776e-06 0)
(0.0002635369712 -2.296691487e-06 0)
(0.000264373541 -2.33303058e-06 0)
(0.0002186958781 7.810560938e-07 0)
(0.0002189835812 2.309857388e-06 0)
(0.0002195797892 3.729476908e-06 0)
(0.0002204452805 4.975329253e-06 0)
(0.0002214876383 6.02050124e-06 0)
(0.0002226367985 6.862903881e-06 0)
(0.0002238547333 7.506424095e-06 0)
(0.0002251136745 7.958077353e-06 0)
(0.000226385214 8.231851508e-06 0)
(0.0002276442769 8.347677136e-06 0)
(0.0002288735584 8.327388675e-06 0)
(0.0002300626646 8.192437053e-06 0)
(0.000231205548 7.963442634e-06 0)
(0.0002322992251 7.659868226e-06 0)
(0.0002333433871 7.299377341e-06 0)
(0.000234339898 6.897341781e-06 0)
(0.0002352921066 6.466707802e-06 0)
(0.0002362042732 6.018093007e-06 0)
(0.0002370811925 5.559971292e-06 0)
(0.000237927924 5.098901304e-06 0)
(0.0002387495664 4.63978922e-06 0)
(0.0002395510767 4.186166189e-06 0)
(0.0002403371431 3.740456894e-06 0)
(0.000241112105 3.304225017e-06 0)
(0.00024187991 2.878390287e-06 0)
(0.000242644096 2.463415585e-06 0)
(0.0002434077938 2.059463545e-06 0)
(0.0002441737437 1.66652594e-06 0)
(0.0002449443246 1.284532137e-06 0)
(0.0002457215738 9.134194985e-07 0)
(0.0002465073693 5.532065528e-07 0)
(0.0002473032407 2.039123e-07 0)
(0.0002481104343 -1.34235917e-07 0)
(0.0002489299967 -4.608475275e-07 0)
(0.0002497637787 -7.752822678e-07 0)
(0.0002506125575 -1.077065855e-06 0)
(0.0002514767691 -1.365756672e-06 0)
(0.0002523564851 -1.641212066e-06 0)
(0.0002532515824 -1.902530627e-06 0)
(0.00025416207 -2.148480816e-06 0)
(0.000255087841 -2.377835613e-06 0)
(0.000256028526 -2.58954018e-06 0)
(0.0002569835043 -2.782652361e-06 0)
(0.0002579519485 -2.956251842e-06 0)
(0.0002589328568 -3.109431206e-06 0)
(0.0002599250605 -3.241330732e-06 0)
(0.000260927221 -3.351166827e-06 0)
(0.0002619378315 -3.438246878e-06 0)
(0.0002629552267 -3.50197989e-06 0)
(0.0002639775966 -3.541887655e-06 0)
(0.000218687244 6.103331495e-07 0)
(0.0002189023058 1.810409951e-06 0)
(0.0002193481498 2.93887128e-06 0)
(0.0002200062943 3.945716553e-06 0)
(0.0002208197623 4.804534973e-06 0)
(0.0002217403807 5.509141103e-06 0)
(0.0002227373265 6.061140259e-06 0)
(0.0002237861966 6.46448695e-06 0)
(0.0002248625061 6.726542303e-06 0)
(0.0002259435995 6.858774247e-06 0)
(0.0002270118972 6.875233984e-06 0)
(0.0002280552987 6.790837888e-06 0)
(0.0002290659151 6.620541851e-06 0)
(0.0002300390911 6.378927291e-06 0)
(0.0002309729837 6.079742115e-06 0)
(0.0002318681631 5.735475211e-06 0)
(0.0002327270451 5.357119003e-06 0)
(0.0002335533103 4.954104942e-06 0)
(0.0002343514345 4.534332702e-06 0)
(0.0002351263298 4.10425321e-06 0)
(0.0002358830572 3.66899683e-06 0)
(0.0002366266028 3.232535525e-06 0)
(0.0002373617156 2.797861075e-06 0)
(0.0002380928043 2.367163917e-06 0)
(0.0002388238778 1.942003557e-06 0)
(0.0002395585185 1.523461012e-06 0)
(0.0002402998842 1.112278414e-06 0)
(0.0002410507209 7.089723874e-07 0)
(0.0002418134284 3.139335181e-07 0)
(0.0002425901048 -7.248725151e-08 0)
(0.0002433823333 -4.499052102e-07 0)
(0.0002441915272 -8.179775152e-07 0)
(0.0002450189709 -1.176200584e-06 0)
(0.000245865536 -1.524028584e-06 0)
(0.0002467317793 -1.860938932e-06 0)
(0.0002476180725 -2.186156049e-06 0)
(0.00024852469 -2.498764998e-06 0)
(0.0002494517156 -2.797780295e-06 0)
(0.0002503989841 -3.081978311e-06 0)
(0.0002513661183 -3.350097262e-06 0)
(0.0002523525595 -3.600926716e-06 0)
(0.0002533575795 -3.833282714e-06 0)
(0.0002543802798 -4.045983533e-06 0)
(0.000255419576 -4.237854484e-06 0)
(0.0002564741929 -4.407753734e-06 0)
(0.0002575426714 -4.554602219e-06 0)
(0.00025862338 -4.677406885e-06 0)
(0.0002597145243 -4.77527775e-06 0)
(0.0002608141595 -4.847442677e-06 0)
(0.0002619202043 -4.893260947e-06 0)
(0.0002186808652 4.800537247e-07 0)
(0.0002188456081 1.425202343e-06 0)
(0.0002191893399 2.32139716e-06 0)
(0.0002197041192 3.133954185e-06 0)
(0.0002203529919 3.840829932e-06 0)
(0.0002211017981 4.432340793e-06 0)
(0.0002219259681 4.9052262e-06 0)
(0.0002228051203 5.259365464e-06 0)
(0.0002237195465 5.497862559e-06 0)
(0.0002246510586 5.627369703e-06 0)
(0.00022558477 5.657194604e-06 0)
(0.000226509534 5.597994687e-06 0)
(0.0002274173707 5.460909168e-06 0)
(0.0002283028901 5.257095423e-06 0)
(0.0002291629957 4.997361052e-06 0)
(0.0002299966362 4.691818433e-06 0)
(0.0002308044516 4.34963561e-06 0)
(0.0002315883701 3.97891047e-06 0)
(0.0002323512449 3.586635353e-06 0)
(0.0002330965542 3.178719365e-06 0)
(0.0002338281514 2.760053696e-06 0)
(0.0002345500546 2.334609542e-06 0)
(0.0002352662811 1.905557211e-06 0)
(0.0002359807239 1.475390545e-06 0)
(0.0002366970639 1.046065056e-06 0)
(0.0002374187078 6.19098165e-07 0)
(0.0002381487896 1.956814578e-07 0)
(0.000238890127 -2.232124298e-07 0)
(0.0002396451574 -6.367544684e-07 0)
(0.0002404159762 -1.044181374e-06 0)
(0.0002412044558 -1.444751797e-06 0)
(0.0002420122165 -1.837625371e-06 0)
(0.0002428406164 -2.222004916e-06 0)
(0.0002436907087 -2.597035665e-06 0)
(0.0002445632854 -2.961750408e-06 0)
(0.0002454589114 -3.315031078e-06 0)
(0.0002463779314 -3.655666958e-06 0)
(0.0002473204526 -3.982394991e-06 0)
(0.0002482863246 -4.293886444e-06 0)
(0.0002492751655 -4.588745791e-06 0)
(0.0002502864 -4.865526809e-06 0)
(0.0002513192597 -5.122754772e-06 0)
(0.0002523727619 -5.358958067e-06 0)
(0.0002534456961 -5.57269757e-06 0)
(0.0002545366274 -5.762589541e-06 0)
(0.0002556439105 -5.927326873e-06 0)
(0.0002567657035 -6.065700801e-06 0)
(0.0002578999825 -6.176621671e-06 0)
(0.000259044556 -6.259137517e-06 0)
(0.0002601970842 -6.312449838e-06 0)
(0.0002186765442 3.787624122e-07 0)
(0.0002188071174 1.125538387e-06 0)
(0.000219080468 1.83776984e-06 0)
(0.0002194931731 2.490079853e-06 0)
(0.0002200196537 3.064059671e-06 0)
(0.0002206354506 3.549197612e-06 0)
(0.0002213220639 3.94026701e-06 0)
(0.0002220634995 4.235416595e-06 0)
(0.0002228441815 4.43572678e-06 0)
(0.000223649562 4.545069861e-06 0)
(0.0002244672791 4.569515629e-06 0)
(0.0002252875626 4.516493719e-06 0)
(0.000226103019 4.394126935e-06 0)
(0.0002269083163 4.210805083e-06 0)
(0.0002276999728 3.974863617e-06 0)
(0.0002284761737 3.694298135e-06 0)
(0.0002292365333 3.376541034e-06 0)
(0.0002299818181 3.028324078e-06 0)
(0.000230713682 2.655613775e-06 0)
(0.0002314344356 2.263600066e-06 0)
(0.0002321468456 1.856724619e-06 0)
(0.0002328539608 1.438730715e-06 0)
(0.000233558965 1.012743613e-06 0)
(0.000234265073 5.8134762e-07 0)
(0.0002349754366 1.466680402e-07 0)
(0.0002356930616 -2.895183686e-07 0)
(0.0002364207555 -7.257047513e-07 0)
(0.0002371611288 -1.160581544e-06 0)
(0.0002379165867 -1.592965076e-06 0)
(0.000238689299 -2.021747546e-06 0)
(0.0002394811891 -2.445856173e-06 0)
(0.0002402939346 -2.864196462e-06 0)
(0.0002411289742 -3.275649977e-06 0)
(0.0002419875032 -3.679027726e-06 0)
(0.0002428704693 -4.073044664e-06 0)
(0.0002437785719 -4.456318891e-06 0)
(0.0002447122666 -4.827378875e-06 0)
(0.0002456717652 -5.184671703e-06 0)
(0.0002466570302 -5.526561916e-06 0)
(0.0002476677761 -5.851333218e-06 0)
(0.0002487034732 -6.157216097e-06 0)
(0.0002497633428 -6.442425344e-06 0)
(0.0002508463488 -6.705191662e-06 0)
(0.0002519511961 -6.9437858e-06 0)
(0.0002530763371 -7.156540872e-06 0)
(0.0002542199822 -7.341877184e-06 0)
(0.0002553801136 -7.498328915e-06 0)
(0.0002565545013 -7.624569765e-06 0)
(0.0002577407227 -7.719435679e-06 0)
(0.0002589361859 -7.78194406e-06 0)
(0.0002186734339 2.978382623e-07 0)
(0.0002187793293 8.852851346e-07 0)
(0.0002190013444 1.446965757e-06 0)
(0.0002193382703 1.963791956e-06 0)
(0.0002197717936 2.421023967e-06 0)
(0.0002202843268 2.809197018e-06 0)
(0.0002208622638 3.122762157e-06 0)
(0.0002214932769 3.358953475e-06 0)
(0.0002221650002 3.517384575e-06 0)
(0.0002228656833 3.599858818e-06 0)
(0.0002235850966 3.609998033e-06 0)
(0.0002243148663 3.552719018e-06 0)
(0.0002250483977 3.433747471e-06 0)
(0.0002257807145 3.259249903e-06 0)
(0.0002265083315 3.035548364e-06 0)
(0.0002272291294 2.768877776e-06 0)
(0.0002279421918 2.465190686e-06 0)
(0.0002286476088 2.130020869e-06 0)
(0.0002293462816 1.768404827e-06 0)
(0.000230039749 1.384838728e-06 0)
(0.0002307300229 9.832896869e-07 0)
(0.0002314194488 5.672000291e-07 0)
(0.0002321105898 1.395272969e-07 0)
(0.0002328060964 -2.971791941e-07 0)
(0.0002335086437 -7.407321424e-07 0)
(0.0002342208897 -1.18922065e-06 0)
(0.0002349453979 -1.64095293e-06 0)
(0.0002356846024 -2.094405131e-06 0)
(0.0002364407872 -2.548164372e-06 0)
(0.000237216065 -3.000876468e-06 0)
(0.0002380123605 -3.451201237e-06 0)
(0.0002388313985 -3.897772179e-06 0)
(0.0002396746953 -4.339168963e-06 0)
(0.0002405435471 -4.773896989e-06 0)
(0.000241439016 -5.200371005e-06 0)
(0.0002423619225 -5.616905263e-06 0)
(0.0002433128404 -6.021710225e-06 0)
(0.0002442920893 -6.412898459e-06 0)
(0.0002452997229 -6.788495295e-06 0)
(0.0002463355185 -7.146454029e-06 0)
(0.000247398971 -7.484680115e-06 0)
(0.0002484892885 -7.801059911e-06 0)
(0.0002496053881 -8.093489137e-06 0)
(0.0002507458943 -8.359901568e-06 0)
(0.0002519091426 -8.598299745e-06 0)
(0.0002530931875 -8.806787594e-06 0)
(0.0002542958179 -8.983603187e-06 0)
(0.0002555145756 -9.127149532e-06 0)
(0.0002567467802 -9.236022079e-06 0)
(0.000257989557 -9.309032204e-06 0)
(0.0002186710944 2.317440569e-07 0)
(0.0002187584892 6.886374696e-07 0)
(0.0002189419449 1.1256266e-06 0)
(0.0002192214558 1.528108661e-06 0)
(0.0002195834925 1.884359567e-06 0)
(0.0002200151452 2.186204907e-06 0)
(0.0002205063777 2.428223575e-06 0)
(0.0002210477561 2.607136364e-06 0)
(0.0002216295276 2.721597049e-06 0)
(0.0002222422686 2.772054332e-06 0)
(0.0002228776263 2.760486559e-06 0)
(0.0002235285799 2.69003837e-06 0)
(0.0002241894164 2.564662696e-06 0)
(0.000224855662 2.388823391e-06 0)
(0.0002255240254 2.167256157e-06 0)
(0.0002261923254 1.904765496e-06 0)
(0.0002268593844 1.606067755e-06 0)
(0.0002275248966 1.275631975e-06 0)
(0.0002281892788 9.176308463e-07 0)
(0.0002288535518 5.358831913e-07 0)
(0.0002295192074 1.338266055e-07 0)
(0.000230188068 -2.854592676e-07 0)
(0.0002308622144 -7.192442252e-07 0)
(0.0002315439083 -1.165107873e-06 0)
(0.0002322355015 -1.620887251e-06 0)
(0.0002329393731 -2.084649225e-06 0)
(0.0002336578788 -2.554633262e-06 0)
(0.0002343933148 -3.029195804e-06 0)
(0.0002351478879 -3.506763245e-06 0)
(0.0002359236874 -3.985789075e-06 0)
(0.0002367226606 -4.464715577e-06 0)
(0.000237546592 -4.941940555e-06 0)
(0.0002383970849 -5.415790718e-06 0)
(0.0002392755429 -5.884501935e-06 0)
(0.0002401831517 -6.346203054e-06 0)
(0.0002411208627 -6.798905549e-06 0)
(0.0002420893764 -7.240501488e-06 0)
(0.0002430891255 -7.668769769e-06 0)
(0.0002441202576 -8.081388252e-06 0)
(0.0002451826192 -8.475950684e-06 0)
(0.0002462757425 -8.84998966e-06 0)
(0.0002473988352 -9.201005819e-06 0)
(0.0002485507722 -9.526501651e-06 0)
(0.0002497300918 -9.824018376e-06 0)
(0.0002509349966 -1.00911748e-05 0)
(0.0002521633627 -1.032570719e-05 0)
(0.0002534127557 -1.052550895e-05 0)
(0.0002546804533 -1.068866837e-05 0)
(0.0002559634749 -1.08135028e-05 0)
(0.0002572586168 -1.089858783e-05 0)
(0.0002186692937 1.768733905e-07 0)
(0.0002187424728 5.251487537e-07 0)
(0.000218896243 8.575847067e-07 0)
(0.0002191312403 1.162756211e-06 0)
(0.0002194371798 1.431225808e-06 0)
(0.000219804391 1.65601964e-06 0)
(0.0002202254501 1.832118914e-06 0)
(0.0002206931991 1.956132086e-06 0)
(0.0002212000132 2.026212839e-06 0)
(0.000221738382 2.041969862e-06 0)
(0.0002223015332 2.004269057e-06 0)
(0.0002228836496 1.914974799e-06 0)
(0.0002234798719 1.776694607e-06 0)
(0.0002240862842 1.592552717e-06 0)
(0.0002246999045 1.36600208e-06 0)
(0.000225318662 1.100635967e-06 0)
(0.0002259412902 8.001462353e-07 0)
(0.0002265672629 4.680854896e-07 0)
(0.0002271967329 1.078107203e-07 0)
(0.0002278303779 -2.775112196e-07 0)
(0.000228469328 -6.849545286e-07 0)
(0.0002291150815 -1.111830898e-06 0)
(0.0002297694022 -1.555685053e-06 0)
(0.0002304342567 -2.014289332e-06 0)
(0.0002311117504 -2.485606393e-06 0)
(0.0002318040715 -2.967751561e-06 0)
(0.0002325134437 -3.458950868e-06 0)
(0.0002332420852 -3.95749916e-06 0)
(0.0002339921727 -4.461721271e-06 0)
(0.0002347658104 -4.969935145e-06 0)
(0.0002355650005 -5.480417293e-06 0)
(0.0002363916174 -5.991371826e-06 0)
(0.0002372473822 -6.500904253e-06 0)
(0.0002381338375 -7.007000756e-06 0)
(0.000239052322 -7.507512842e-06 0)
(0.0002400039451 -8.000148309e-06 0)
(0.0002409895611 -8.482469527e-06 0)
(0.0002420097438 -8.951899127e-06 0)
(0.0002430647617 -9.405732663e-06 0)
(0.0002441545532 -9.841158114e-06 0)
(0.0002452787063 -1.025528257e-05 0)
(0.0002464364399 -1.064516613e-05 0)
(0.0002476265904 -1.100786177e-05 0)
(0.0002488476042 -1.134045966e-05 0)
(0.0002500975372 -1.164013442e-05 0)
(0.0002513740629 -1.190419419e-05 0)
(0.0002526744899 -1.21301298e-05 0)
(0.0002539957881 -1.231566236e-05 0)
(0.0002553346242 -1.245878653e-05 0)
(0.0002566874049 -1.255780759e-05 0)
(0.0002186678746 1.307126111e-07 0)
(0.000218729863 3.874419119e-07 0)
(0.0002188602286 6.312020766e-07 0)
(0.0002190599444 8.528681265e-07 0)
(0.0002193210187 1.044748427e-06 0)
(0.0002196360868 1.20092028e-06 0)
(0.0002199996357 1.316866274e-06 0)
(0.0002204062526 1.389285047e-06 0)
(0.0002208499958 1.41607997e-06 0)
(0.0002213248976 1.396314273e-06 0)
(0.0002218254947 1.330075026e-06 0)
(0.0002223470154 1.218293077e-06 0)
(0.0002228853922 1.062561731e-06 0)
(0.0002234372758 8.649742432e-07 0)
(0.0002240000258 6.279679715e-07 0)
(0.00022457182 3.542111306e-07 0)
(0.0002251514944 4.638673456e-08 0)
(0.0002257383825 -2.927396735e-07 0)
(0.0002263324673 -6.604631854e-07 0)
(0.0002269342783 -1.054192706e-06 0)
(0.0002275447469 -1.471480637e-06 0)
(0.000228165142 -1.910047683e-06 0)
(0.0002287970141 -2.367766136e-06 0)
(0.0002294421435 -2.842645235e-06 0)
(0.0002301024851 -3.332811377e-06 0)
(0.0002307801168 -3.836479758e-06 0)
(0.000231477194 -4.351922323e-06 0)
(0.0002321959105 -4.87743383e-06 0)
(0.000232938462 -5.411297053e-06 0)
(0.0002337070128 -5.951748371e-06 0)
(0.0002345036641 -6.496945067e-06 0)
(0.0002353304226 -7.044935495e-06 0)
(0.0002361891691 -7.593633149e-06 0)
(0.0002370816271 -8.140795577e-06 0)
(0.0002380093291 -8.684008846e-06 0)
(0.0002389735835 -9.220678234e-06 0)
(0.0002399754395 -9.748026025e-06 0)
(0.0002410156525 -1.026309712e-05 0)
(0.0002420946488 -1.076277293e-05 0)
(0.0002432124924 -1.124379373e-05 0)
(0.0002443688543 -1.170278961e-05 0)
(0.0002455629852 -1.213631979e-05 0)
(0.0002467936952 -1.254091966e-05 0)
(0.00024805934 -1.291315431e-05 0)
(0.0002493578168 -1.324967695e-05 0)
(0.0002506865713 -1.354729046e-05 0)
(0.0002520426154 -1.380300968e-05 0)
(0.0002534225582 -1.401412184e-05 0)
(0.0002548226485 -1.417824207e-05 0)
(0.0002562388286 -1.429336108e-05 0)
(0.0002186667303 9.14675517e-08 0)
(0.0002187197112 2.702417479e-07 0)
(0.0002188312245 4.381082424e-07 0)
(0.000219002409 5.876414908e-07 0)
(0.0002192269407 7.124841597e-07 0)
(0.0002194991279 8.0758136e-07 0)
(0.0002198148559 8.688978052e-07 0)
(0.0002201700354 8.933042485e-07 0)
(0.0002205600445 8.786083371e-07 0)
(0.0002209801557 8.235343498e-07 0)
(0.0002214259892 7.276341863e-07 0)
(0.0002218936716 5.91166058e-07 0)
(0.000222379857 4.149648961e-07 0)
(0.0002228817441 2.003205857e-07 0)
(0.0002233971289 -5.114304479e-08 0)
(0.000223924302 -3.375465956e-07 0)
(0.0002244621673 -6.569555836e-07 0)
(0.0002250102796 -1.007297253e-06 0)
(0.000225568617 -1.386458601e-06 0)
(0.0002261375774 -1.792398892e-06 0)
(0.0002267179498 -2.223162745e-06 0)
(0.0002273108777 -2.676874416e-06 0)
(0.0002279178032 -3.151733052e-06 0)
(0.0002285404101 -3.646008916e-06 0)
(0.0002291805786 -4.158030697e-06 0)
(0.0002298403439 -4.686162298e-06 0)
(0.0002305218561 -5.228774673e-06 0)
(0.0002312273429 -5.784215089e-06 0)
(0.000231959074 -6.350774609e-06 0)
(0.0002327193272 -6.926655127e-06 0)
(0.0002335103539 -7.50993735e-06 0)
(0.0002343343441 -8.098550802e-06 0)
(0.0002351933903 -8.690246897e-06 0)
(0.0002360894492 -9.282576223e-06 0)
(0.0002370243015 -9.872871132e-06 0)
(0.0002379995097 -1.045823472e-05 0)
(0.0002390163736 -1.103553731e-05 0)
(0.0002400758844 -1.160142163e-05 0)
(0.0002411786792 -1.215231744e-05 0)
(0.0002423249951 -1.268446648e-05 0)
(0.0002435146275 -1.319395795e-05 0)
(0.0002447468913 -1.367677462e-05 0)
(0.0002460205906 -1.412884909e-05 0)
(0.0002473339965 -1.454612918e-05 0)
(0.0002486848373 -1.492465057e-05 0)
(0.0002500703015 -1.526061447e-05 0)
(0.0002514870574 -1.555046696e-05 0)
(0.0002529312881 -1.579097685e-05 0)
(0.0002543987433 -1.597930767e-05 0)
(0.0002558848057 -1.611307977e-05 0)
(0.0002186657857 5.783343208e-08 0)
(0.0002187113558 1.697117968e-07 0)
(0.0002188073666 2.721851381e-07 0)
(0.0002189550191 3.590951996e-07 0)
(0.0002191492302 4.251052779e-07 0)
(0.0002193855407 4.658649487e-07 0)
(0.000219660869 4.777660322e-07 0)
(0.000219972139 4.578642207e-07 0)
(0.0002203157649 4.039630789e-07 0)
(0.0002206880039 3.145873678e-07 0)
(0.0002210853603 1.889254439e-07 0)
(0.0002215047205 2.674586283e-08 0)
(0.0002219433609 -1.716927833e-07 0)
(0.0002223989691 -4.057349022e-07 0)
(0.000222869692 -6.744092037e-07 0)
(0.0002233541477 -9.765284393e-07 0)
(0.0002238514572 -1.3106682e-06 0)
(0.0002243612222 -1.675361248e-06 0)
(0.0002248834369 -2.069104302e-06 0)
(0.0002254184823 -2.490380119e-06 0)
(0.0002259671279 -2.937674492e-06 0)
(0.0002265304901 -3.409492393e-06 0)
(0.0002271099749 -3.904367101e-06 0)
(0.0002277072361 -4.420855068e-06 0)
(0.0002283241443 -4.957520921e-06 0)
(0.0002289627547 -5.512916707e-06 0)
(0.0002296252711 -6.085556347e-06 0)
(0.0002303140116 -6.67388617e-06 0)
(0.0002310313754 -7.276252954e-06 0)
(0.0002317798086 -7.890870757e-06 0)
(0.0002325617689 -8.515787669e-06 0)
(0.000233379688 -9.148853644e-06 0)
(0.0002342359306 -9.787690671e-06 0)
(0.0002351327511 -1.042966662e-05 0)
(0.0002360722453 -1.107187415e-05 0)
(0.0002370562996 -1.171111631e-05 0)
(0.0002380865356 -1.234390017e-05 0)
(0.0002391642524 -1.296644025e-05 0)
(0.0002402903672 -1.357467305e-05 0)
(0.000241465356 -1.416428394e-05 0)
(0.0002426891962 -1.473074735e-05 0)
(0.0002439613143 -1.526938061e-05 0)
(0.0002452805406 -1.577541132e-05 0)
(0.0002466450762 -1.624405718e-05 0)
(0.0002480524732 -1.667061667e-05 0)
(0.0002494996331 -1.705056733e-05 0)
(0.0002509828256 -1.737966792e-05 0)
(0.0002524977285 -1.765405956e-05 0)
(0.0002540394903 -1.787036042e-05 0)
(0.0002556028138 -1.802574807e-05 0)
(0.0002186649932 2.880632678e-08 0)
(0.0002187043584 8.291943965e-08 0)
(0.0002187873804 1.287541858e-07 0)
(0.0002189152557 1.610837728e-07 0)
(0.0002190838547 1.753455665e-07 0)
(0.0002192896425 1.677485418e-07 0)
(0.0002195302806 1.350723481e-07 0)
(0.0002198034711 7.460180151e-08 0)
(0.0002201064615 -1.586562631e-08 0)
(0.000220436294 -1.379453548e-07 0)
(0.0002207901878 -2.927008653e-07 0)
(0.0002211656549 -4.807207487e-07 0)
(0.0002215605086 -7.021857865e-07 0)
(0.0002219728858 -9.569298344e-07 0)
(0.0002224012917 -1.244500856e-06 0)
(0.0002228446279 -1.564227417e-06 0)
(0.0002233021985 -1.91526355e-06 0)
(0.0002237737054 -2.29667008e-06 0)
(0.0002242592363 -2.707436638e-06 0)
(0.0002247592471 -3.146493741e-06 0)
(0.000225274542 -3.612739858e-06 0)
(0.0002258062457 -4.105063908e-06 0)
(0.0002263557745 -4.622347718e-06 0)
(0.0002269248096 -5.163454959e-06 0)
(0.0002275152706 -5.727216034e-06 0)
(0.0002281292876 -6.312408946e-06 0)
(0.000228769172 -6.91773416e-06 0)
(0.0002294373865 -7.541784521e-06 0)
(0.0002301365148 -8.183012003e-06 0)
(0.000230869229 -8.839692357e-06 0)
(0.0002316382537 -9.509888637e-06 0)
(0.0002324463271 -1.019141484e-05 0)
(0.0002332961562 -1.088180106e-05 0)
(0.0002341903682 -1.157826169e-05 0)
(0.0002351314552 -1.227766851e-05 0)
(0.0002361217132 -1.297653038e-05 0)
(0.0002371631754 -1.367098193e-05 0)
(0.0002382575409 -1.435678312e-05 0)
(0.0002394060989 -1.502933188e-05 0)
(0.0002406096524 -1.568369169e-05 0)
(0.0002418684414 -1.63146359e-05 0)
(0.0002431820713 -1.691670967e-05 0)
(0.0002445494496 -1.74843101e-05 0)
(0.0002459687347 -1.801178372e-05 0)
(0.0002474373031 -1.849353958e-05 0)
(0.0002489517386 -1.892417462e-05 0)
(0.0002505078486 -1.929860602e-05 0)
(0.0002521007086 -1.961220409e-05 0)
(0.0002537247383 -1.986091813e-05 0)
(0.0002553738061 -2.0041387e-05 0)
(0.000218664338 3.668756472e-09 0)
(0.0002186984805 7.75930902e-09 0)
(0.000218770439 4.439779927e-09 0)