/*--------------------------------*- C++ -*----------------------------------*\
| =========                 |                                                 |
| \\      /  F ield         | foam-extend: Open Source CFD                    |
|  \\    /   O peration     | Version:     4.1                                |
|   \\  /    A nd           | Web:         http://www.foam-extend.org         |
|    \\/     M anipulation  |                                                 |
\*---------------------------------------------------------------------------*/
FoamFile
{
    version     2.0;
    format      ascii;
    class       volVectorField;
    location    "60000";
    object      vorticity;
}
// * * * * * * * * * * * * * * * * * * * * * * * * * * * * * * * * * * * * * //

dimensions      [0 0 -1 0 0 0 0];

internalField   nonuniform List<vector> 
15920
(
(0 -0 -0.008257112185)
(0 -0 -0.008406166173)
(0 -0 -0.00845059574)
(0 -0 -0.008326377027)
(0 -0 -0.008116851411)
(0 -0 -0.007880123845)
(0 -0 -0.007627169823)
(0 -0 -0.007359263727)
(0 -0 -0.007084918449)
(0 -0 -0.006815031416)
(0 -0 -0.006557210115)
(0 -0 -0.006315629981)
(0 -0 -0.006092649307)
(0 -0 -0.005889531922)
(0 -0 -0.00570654092)
(0 -0 -0.005543099373)
(0 -0 -0.005398082287)
(0 -0 -0.005270073789)
(0 -0 -0.005157534372)
(0 -0 -0.005058908077)
(0 -0 -0.004972695996)
(0 -0 -0.004897503587)
(0 -0 -0.004832065697)
(0 -0 -0.00477525512)
(0 -0 -0.004726080401)
(0 -0 -0.004683673929)
(0 -0 -0.004647264843)
(0 -0 -0.004616212896)
(0 -0 -0.004589990389)
(0 -0 -0.004568295063)
(0 -0 -0.004550561509)
(0 -0 -0.004536324118)
(0 -0 -0.004525314509)
(0 -0 -0.004517309124)
(0 -0 -0.004512065749)
(0 -0 -0.004509346275)
(0 -0 -0.004508934549)
(0 -0 -0.004510631818)
(0 -0 -0.004514250594)
(0 -0 -0.004519601034)
(0 -0 -0.004526499819)
(0 -0 -0.004534764157)
(0 -0 -0.004544207747)
(0 -0 -0.004554644381)
(0 -0 -0.004565890023)
(0 -0 -0.004577762171)
(0 -0 -0.004590079217)
(0 -0 -0.004602660595)
(0 -0 -0.00461532721)
(0 -0 -0.00462790192)
(0 -0 0.0003530018973)
(0 -0 -1.034130652e-05)
(0 -0 -0.000397811326)
(0 -0 -0.0007982662487)
(0 -0 -0.001194894855)
(0 -0 -0.001571495238)
(0 -0 -0.001918981307)
(0 -0 -0.002232355104)
(0 -0 -0.002507731845)
(0 -0 -0.002742961052)
(0 -0 -0.002938484286)
(0 -0 -0.003096844956)
(0 -0 -0.003221693755)
(0 -0 -0.003317127825)
(0 -0 -0.003387364827)
(0 -0 -0.003436516755)
(0 -0 -0.003468402572)
(0 -0 -0.003486432073)
(0 -0 -0.00349356383)
(0 -0 -0.003492309706)
(0 -0 -0.003484762483)
(0 -0 -0.003472635612)
(0 -0 -0.003457309377)
(0 -0 -0.003439878763)
(0 -0 -0.003421199685)
(0 -0 -0.003401932856)
(0 -0 -0.003382585408)
(0 -0 -0.003363525207)
(0 -0 -0.003345016513)
(0 -0 -0.003327194584)
(0 -0 -0.003310248727)
(0 -0 -0.00329426203)
(0 -0 -0.003279290416)
(0 -0 -0.003265368963)
(0 -0 -0.003252516022)
(0 -0 -0.003240734837)
(0 -0 -0.003230015382)
(0 -0 -0.003220343232)
(0 -0 -0.003211676476)
(0 -0 -0.003203966904)
(0 -0 -0.003197191815)
(0 -0 -0.003191337837)
(0 -0 -0.003186389472)
(0 -0 -0.003182327938)
(0 -0 -0.003179132601)
(0 -0 -0.003176781439)
(0 -0 -0.003175250868)
(0 -0 -0.003174515622)
(0 -0 -0.003174548703)
(0 -0 -0.00317532137)
(0 -0 0.0001728270697)
(0 -0 0.0002515253033)
(0 -0 0.0003150833156)
(0 -0 0.0003426042501)
(0 -0 0.000328501897)
(0 -0 0.0002750612045)
(0 -0 0.0001888066395)
(0 -0 7.765477575e-05)
(0 -0 -5.050241962e-05)
(0 -0 -0.0001884181517)
(0 -0 -0.0003299034268)
(0 -0 -0.0004700604327)
(0 -0 -0.0006052840034)
(0 -0 -0.0007331128101)
(0 -0 -0.0008520361976)
(0 -0 -0.0009612969293)
(0 -0 -0.00106070247)
(0 -0 -0.001150457256)
(0 -0 -0.001231025324)
(0 -0 -0.001303024722)
(0 -0 -0.001367149931)
(0 -0 -0.001424117328)
(0 -0 -0.001474628979)
(0 -0 -0.001519350532)
(0 -0 -0.001558898599)
(0 -0 -0.001593835452)
(0 -0 -0.001624670022)
(0 -0 -0.001651853764)
(0 -0 -0.001675794499)
(0 -0 -0.001696837965)
(0 -0 -0.001715356421)
(0 -0 -0.001731614156)
(0 -0 -0.001745862243)
(0 -0 -0.00175833212)
(0 -0 -0.001769229445)
(0 -0 -0.001778736922)
(0 -0 -0.001787032169)
(0 -0 -0.001794211029)
(0 -0 -0.001800420361)
(0 -0 -0.001805812366)
(0 -0 -0.001810518976)
(0 -0 -0.001814659035)
(0 -0 -0.001818341225)
(0 -0 -0.001821666266)
(0 -0 -0.001824728085)
(0 -0 -0.001827614204)
(0 -0 -0.001830405968)
(0 -0 -0.00183317884)
(0 -0 -0.001836002714)
(0 -0 -0.001838942149)
(0 -0 0.0001458662682)
(0 -0 0.0001486663065)
(0 -0 0.0001593876199)
(0 -0 0.0001782556235)
(0 -0 0.0002027104168)
(0 -0 0.0002286073262)
(0 -0 0.0002515406122)
(0 -0 0.0002680001738)
(0 -0 0.0002757807227)
(0 -0 0.000273921381)
(0 -0 0.0002624875727)
(0 -0 0.0002422902572)
(0 -0 0.0002145875561)
(0 -0 0.0001808303136)
(0 -0 0.000142479884)
(0 -0 0.0001008926009)
(0 -0 5.725678384e-05)
(0 -0 1.256809872e-05)
(0 -0 -3.236939926e-05)
(0 -0 -7.692716055e-05)
(0 -0 -0.000120628834)
(0 -0 -0.0001631249187)
(0 -0 -0.0002041684485)
(0 -0 -0.0002435933775)
(0 -0 -0.0002812961487)
(0 -0 -0.0003172207798)
(0 -0 -0.0003513471778)
(0 -0 -0.0003836815178)
(0 -0 -0.0004142498362)
(0 -0 -0.0004430918792)
(0 -0 -0.0004702611952)
(0 -0 -0.0004958167592)
(0 -0 -0.000519822666)
(0 -0 -0.0005423520115)
(0 -0 -0.0005634553321)
(0 -0 -0.0005832004951)
(0 -0 -0.0006016565587)
(0 -0 -0.0006189555074)
(0 -0 -0.000635198446)
(0 -0 -0.000650472467)
(0 -0 -0.0006648474358)
(0 -0 -0.0006783894328)
(0 -0 -0.0006911637963)
(0 -0 -0.0007032359333)
(0 -0 -0.0007146713438)
(0 -0 -0.000725535332)
(0 -0 -0.0007358926641)
(0 -0 -0.0007458072179)
(0 -0 -0.0007553416777)
(0 -0 -0.0007645572426)
(0 -0 0.0001015784633)
(0 -0 0.0001024934951)
(0 -0 0.0001036940283)
(0 -0 0.0001056898502)
(0 -0 0.0001092221907)
(0 -0 0.0001148980821)
(0 -0 0.0001229206485)
(0 -0 0.0001330238352)
(0 -0 0.0001445686369)
(0 -0 0.0001567006954)
(0 -0 0.0001685153712)
(0 -0 0.0001791966112)
(0 -0 0.0001881032241)
(0 -0 0.0001948002385)
(0 -0 0.0001990512865)
(0 -0 0.0002007893134)
(0 -0 0.0002000781221)
(0 -0 0.0001970733191)
(0 -0 0.0001919878166)
(0 -0 0.0001850642536)
(0 -0 0.0001765546204)
(0 -0 0.0001667062536)
(0 -0 0.0001557529612)
(0 -0 0.0001439100112)
(0 -0 0.0001313718511)
(0 -0 0.0001183116454)
(0 -0 0.0001048819167)
(0 -0 9.121581038e-05)
(0 -0 7.742862949e-05)
(0 -0 6.361944043e-05)
(0 -0 4.987250482e-05)
(0 -0 3.625956425e-05)
(0 -0 2.284072612e-05)
(0 -0 9.667959277e-06)
(0 -0 -3.24054355e-06)
(0 -0 -1.586128866e-05)
(0 -0 -2.816099966e-05)
(0 -0 -4.017639711e-05)
(0 -0 -5.18819344e-05)
(0 -0 -6.325358576e-05)
(0 -0 -7.428720426e-05)
(0 -0 -8.498536073e-05)
(0 -0 -9.53548277e-05)
(0 -0 -0.0001054057686)
(0 -0 -0.0001151512297)
(0 -0 -0.0001246067702)
(0 -0 -0.0001337901552)
(0 -0 -0.0001427210521)
(0 -0 -0.0001514207349)
(0 -0 -0.0001599117878)
(0 -0 7.775704231e-05)
(0 -0 7.802428042e-05)
(0 -0 7.837513982e-05)
(0 -0 7.876708491e-05)
(0 -0 7.920762579e-05)
(0 -0 7.977870786e-05)
(0 -0 8.062772492e-05)
(0 -0 8.193005076e-05)
(0 -0 8.383941163e-05)
(0 -0 8.644629814e-05)
(0 -0 8.975734967e-05)
(0 -0 9.369739316e-05)
(0 -0 9.812735128e-05)
(0 -0 0.0001028689544)
(0 -0 0.0001077293087)
(0 -0 0.0001125213588)
(0 -0 0.0001170783736)
(0 -0 0.0001212622517)
(0 -0 0.0001249666199)
(0 -0 0.0001281162038)
(0 -0 0.0001306638976)
(0 -0 0.0001325866716)
(0 -0 0.0001338811233)
(0 -0 0.0001345591968)
(0 -0 0.0001346443545)
(0 -0 0.0001341683377)
(0 -0 0.0001331684622)
(0 -0 0.0001316856864)
(0 -0 0.000129761827)
(0 -0 0.000127438311)
(0 -0 0.0001247580236)
(0 -0 0.0001217625042)
(0 -0 0.0001184902528)
(0 -0 0.0001149840794)
(0 -0 0.0001112581241)
(0 -0 0.0001073375085)
(0 -0 0.0001032434638)
(0 -0 9.905475565e-05)
(0 -0 9.480438212e-05)
(0 -0 9.051224873e-05)
(0 -0 8.619377537e-05)
(0 -0 8.186193311e-05)
(0 -0 7.752774619e-05)
(0 -0 7.320039686e-05)
(0 -0 6.888726292e-05)
(0 -0 6.459397884e-05)
(0 -0 6.032451858e-05)
(0 -0 5.608128674e-05)
(0 -0 5.186521472e-05)
(0 -0 4.767586362e-05)
(0 -0 6.081883559e-05)
(0 -0 6.097291567e-05)
(0 -0 6.119165125e-05)
(0 -0 6.146481937e-05)
(0 -0 6.177854196e-05)
(0 -0 6.211513986e-05)
(0 -0 6.245895058e-05)
(0 -0 6.280613328e-05)
(0 -0 6.317053194e-05)
(0 -0 6.35816583e-05)
(0 -0 6.407735722e-05)
(0 -0 6.469530805e-05)
(0 -0 6.546578079e-05)
(0 -0 6.640670687e-05)
(0 -0 6.752152649e-05)
(0 -0 6.879965863e-05)
(0 -0 7.021884278e-05)
(0 -0 7.174840301e-05)
(0 -0 7.335265917e-05)
(0 -0 7.499399795e-05)
(0 -0 7.663535728e-05)
(0 -0 7.824204826e-05)
(0 -0 7.978294953e-05)
(0 -0 8.123118253e-05)
(0 -0 8.256434929e-05)
(0 -0 8.376463398e-05)
(0 -0 8.481786831e-05)
(0 -0 8.571371196e-05)
(0 -0 8.644685455e-05)
(0 -0 8.701598322e-05)
(0 -0 8.742101278e-05)
(0 -0 8.766309962e-05)
(0 -0 8.774508151e-05)
(0 -0 8.766730056e-05)
(0 -0 8.745667806e-05)
(0 -0 8.712727105e-05)
(0 -0 8.668614758e-05)
(0 -0 8.614031761e-05)
(0 -0 8.549723166e-05)
(0 -0 8.476438008e-05)
(0 -0 8.394918287e-05)
(0 -0 8.305890512e-05)
(0 -0 8.210055333e-05)
(0 -0 8.108079439e-05)
(0 -0 8.000589464e-05)
(0 -0 7.888167234e-05)
(0 -0 7.771346148e-05)
(0 -0 7.650608468e-05)
(0 -0 7.526383336e-05)
(0 -0 7.399045437e-05)
(0 -0 4.784539675e-05)
(0 -0 4.79373524e-05)
(0 -0 4.807243212e-05)
(0 -0 4.82482418e-05)
(0 -0 4.846183873e-05)
(0 -0 4.870850819e-05)
(0 -0 4.898086859e-05)
(0 -0 4.926985058e-05)
(0 -0 4.956659653e-05)
(0 -0 4.986405033e-05)
(0 -0 5.015798553e-05)
(0 -0 5.04475871e-05)
(0 -0 5.073544118e-05)
(0 -0 5.102679305e-05)
(0 -0 5.132829214e-05)
(0 -0 5.164665031e-05)
(0 -0 5.198753708e-05)
(0 -0 5.235483734e-05)
(0 -0 5.275027373e-05)
(0 -0 5.317334284e-05)
(0 -0 5.362148794e-05)
(0 -0 5.409042713e-05)
(0 -0 5.457453813e-05)
(0 -0 5.506732288e-05)
(0 -0 5.556151476e-05)
(0 -0 5.604954629e-05)
(0 -0 5.652480905e-05)
(0 -0 5.698094278e-05)
(0 -0 5.741261061e-05)
(0 -0 5.781618261e-05)
(0 -0 5.818678361e-05)
(0 -0 5.85205237e-05)
(0 -0 5.881467788e-05)
(0 -0 5.906701913e-05)
(0 -0 5.92763153e-05)
(0 -0 5.944209706e-05)
(0 -0 5.95643689e-05)
(0 -0 5.96435199e-05)
(0 -0 5.968030812e-05)
(0 -0 5.967583511e-05)
(0 -0 5.963149996e-05)
(0 -0 5.954895299e-05)
(0 -0 5.943004937e-05)
(0 -0 5.927680976e-05)
(0 -0 5.909138254e-05)
(0 -0 5.887600386e-05)
(0 -0 5.863295812e-05)
(0 -0 5.83645418e-05)
(0 -0 5.807303108e-05)
(0 -0 5.776065164e-05)
(0 -0 3.77561449e-05)
(0 -0 3.780076136e-05)
(0 -0 3.787344566e-05)
(0 -0 3.797422248e-05)
(0 -0 3.81019105e-05)
(0 -0 3.825460864e-05)
(0 -0 3.842955973e-05)
(0 -0 3.862336336e-05)
(0 -0 3.883225902e-05)
(0 -0 3.905222679e-05)
(0 -0 3.927906487e-05)
(0 -0 3.950863775e-05)
(0 -0 3.973724531e-05)
(0 -0 3.996192909e-05)
(0 -0 4.01806096e-05)
(0 -0 4.039207028e-05)
(0 -0 4.059584444e-05)
(0 -0 4.079204513e-05)
(0 -0 4.098116513e-05)
(0 -0 4.116387582e-05)
(0 -0 4.134083588e-05)
(0 -0 4.151259058e-05)
(0 -0 4.167924939e-05)
(0 -0 4.184066132e-05)
(0 -0 4.199675456e-05)
(0 -0 4.214704316e-05)
(0 -0 4.229125586e-05)
(0 -0 4.242898355e-05)
(0 -0 4.255825387e-05)
(0 -0 4.267594763e-05)
(0 -0 4.278068372e-05)
(0 -0 4.287151506e-05)
(0 -0 4.294763984e-05)
(0 -0 4.300836449e-05)
(0 -0 4.305310866e-05)
(0 -0 4.308142186e-05)
(0 -0 4.309299941e-05)
(0 -0 4.308768852e-05)
(0 -0 4.30654948e-05)
(0 -0 4.302658461e-05)
(0 -0 4.297127642e-05)
(0 -0 4.290003458e-05)
(0 -0 4.28134644e-05)
(0 -0 4.271230407e-05)
(0 -0 4.259741306e-05)
(0 -0 4.246975825e-05)
(0 -0 4.233039862e-05)
(0 -0 4.218046844e-05)
(0 -0 4.202116048e-05)
(0 -0 4.185371059e-05)
(0 -0 2.968708133e-05)
(0 -0 2.97007531e-05)
(0 -0 2.973313291e-05)
(0 -0 2.978580228e-05)
(0 -0 2.985834993e-05)
(0 -0 2.994956347e-05)
(0 -0 3.005763522e-05)
(0 -0 3.018042955e-05)
(0 -0 3.031571238e-05)
(0 -0 3.046120554e-05)
(0 -0 3.061456269e-05)
(0 -0 3.077339044e-05)
(0 -0 3.093532468e-05)
(0 -0 3.109810927e-05)
(0 -0 3.12596459e-05)
(0 -0 3.141802545e-05)
(0 -0 3.157155502e-05)
(0 -0 3.171878422e-05)
(0 -0 3.185850934e-05)
(0 -0 3.198979756e-05)
(0 -0 3.211179496e-05)
(0 -0 3.222379647e-05)
(0 -0 3.23255317e-05)
(0 -0 3.241680718e-05)
(0 -0 3.249766628e-05)
(0 -0 3.256825155e-05)
(0 -0 3.262792298e-05)
(0 -0 3.267599424e-05)
(0 -0 3.271219211e-05)
(0 -0 3.273631062e-05)
(0 -0 3.274817708e-05)
(0 -0 3.274765827e-05)
(0 -0 3.273466493e-05)
(0 -0 3.270915569e-05)
(0 -0 3.267114393e-05)
(0 -0 3.262070382e-05)
(0 -0 3.25579755e-05)
(0 -0 3.248316797e-05)
(0 -0 3.239656265e-05)
(0 -0 3.229851721e-05)
(0 -0 3.218946735e-05)
(0 -0 3.206992753e-05)
(0 -0 3.194049021e-05)
(0 -0 3.180182234e-05)
(0 -0 3.165465997e-05)
(0 -0 3.149980297e-05)
(0 -0 3.133810957e-05)
(0 -0 3.11704886e-05)
(0 -0 3.099788872e-05)
(0 -0 3.082128778e-05)
(0 -0 2.309234253e-05)
(0 -0 2.308419489e-05)
(0 -0 2.308880744e-05)
(0 -0 2.310892554e-05)
(0 -0 2.314468234e-05)
(0 -0 2.319531666e-05)
(0 -0 2.325956089e-05)
(0 -0 2.333589225e-05)
(0 -0 2.342268889e-05)
(0 -0 2.351826426e-05)
(0 -0 2.362087009e-05)
(0 -0 2.372873766e-05)
(0 -0 2.38401415e-05)
(0 -0 2.395344214e-05)
(0 -0 2.406709384e-05)
(0 -0 2.417963909e-05)
(0 -0 2.428969441e-05)
(0 -0 2.43959951e-05)
(0 -0 2.44972545e-05)
(0 -0 2.459231657e-05)
(0 -0 2.468033607e-05)
(0 -0 2.47605772e-05)
(0 -0 2.483253587e-05)
(0 -0 2.489571838e-05)
(0 -0 2.494933125e-05)
(0 -0 2.49927125e-05)
(0 -0 2.502541778e-05)
(0 -0 2.50470941e-05)
(0 -0 2.50574569e-05)
(0 -0 2.50562842e-05)
(0 -0 2.504341389e-05)
(0 -0 2.501874299e-05)
(0 -0 2.498222778e-05)
(0 -0 2.493388437e-05)
(0 -0 2.487379072e-05)
(0 -0 2.480208797e-05)
(0 -0 2.471898129e-05)
(0 -0 2.462474073e-05)
(0 -0 2.451970264e-05)
(0 -0 2.440427073e-05)
(0 -0 2.427891562e-05)
(0 -0 2.414417285e-05)
(0 -0 2.400064028e-05)
(0 -0 2.384897473e-05)
(0 -0 2.36898873e-05)
(0 -0 2.352413788e-05)
(0 -0 2.335252978e-05)
(0 -0 2.317590416e-05)
(0 -0 2.299513209e-05)
(0 -0 2.281110439e-05)
(0 -0 1.761495002e-05)
(0 -0 1.759030559e-05)
(0 -0 1.757451287e-05)
(0 -0 1.757125406e-05)
(0 -0 1.75810623e-05)
(0 -0 1.760349437e-05)
(0 -0 1.76376508e-05)
(0 -0 1.76824188e-05)
(0 -0 1.773658053e-05)
(0 -0 1.779882514e-05)
(0 -0 1.786775416e-05)
(0 -0 1.794192838e-05)
(0 -0 1.801993154e-05)
(0 -0 1.810041056e-05)
(0 -0 1.818207158e-05)
(0 -0 1.826371212e-05)
(0 -0 1.834403965e-05)
(0 -0 1.84218935e-05)
(0 -0 1.849631154e-05)
(0 -0 1.85663381e-05)
(0 -0 1.863121905e-05)
(0 -0 1.86902578e-05)
(0 -0 1.874254391e-05)
(0 -0 1.878726254e-05)
(0 -0 1.882377139e-05)
(0 -0 1.885151436e-05)
(0 -0 1.887000567e-05)
(0 -0 1.887882567e-05)
(0 -0 1.887761858e-05)
(0 -0 1.886609133e-05)
(0 -0 1.88440131e-05)
(0 -0 1.881121532e-05)
(0 -0 1.87675922e-05)
(0 -0 1.871310118e-05)
(0 -0 1.864776398e-05)
(0 -0 1.857166772e-05)
(0 -0 1.84849662e-05)
(0 -0 1.838788097e-05)
(0 -0 1.828070207e-05)
(0 -0 1.816378793e-05)
(0 -0 1.803756378e-05)
(0 -0 1.790251863e-05)
(0 -0 1.775920186e-05)
(0 -0 1.760821977e-05)
(0 -0 1.745023153e-05)
(0 -0 1.728594322e-05)
(0 -0 1.711610089e-05)
(0 -0 1.694148389e-05)
(0 -0 1.676289826e-05)
(0 -0 1.658116883e-05)
(0 -0 1.300513017e-05)
(0 -0 1.296746751e-05)
(0 -0 1.293602629e-05)
(0 -0 1.291528502e-05)
(0 -0 1.290608556e-05)
(0 -0 1.290820919e-05)
(0 -0 1.292100157e-05)
(0 -0 1.294361742e-05)
(0 -0 1.297510404e-05)
(0 -0 1.301440172e-05)
(0 -0 1.306034882e-05)
(0 -0 1.311172707e-05)
(0 -0 1.316732654e-05)
(0 -0 1.322595904e-05)
(0 -0 1.328643414e-05)
(0 -0 1.334766882e-05)
(0 -0 1.340868745e-05)
(0 -0 1.346841869e-05)
(0 -0 1.352599119e-05)
(0 -0 1.358057364e-05)
(0 -0 1.363119011e-05)
(0 -0 1.367693676e-05)
(0 -0 1.371704115e-05)
(0 -0 1.375080054e-05)
(0 -0 1.37775736e-05)
(0 -0 1.379678022e-05)
(0 -0 1.38079011e-05)
(0 -0 1.381047749e-05)
(0 -0 1.380411084e-05)
(0 -0 1.378846241e-05)
(0 -0 1.37632532e-05)
(0 -0 1.372826409e-05)
(0 -0 1.36833366e-05)
(0 -0 1.362837402e-05)
(0 -0 1.356334324e-05)
(0 -0 1.348827721e-05)
(0 -0 1.340327744e-05)
(0 -0 1.330851564e-05)
(0 -0 1.320423408e-05)
(0 -0 1.309074448e-05)
(0 -0 1.296842587e-05)
(0 -0 1.28377212e-05)
(0 -0 1.269913326e-05)
(0 -0 1.25532208e-05)
(0 -0 1.240059432e-05)
(0 -0 1.224191073e-05)
(0 -0 1.207786653e-05)
(0 -0 1.190919071e-05)
(0 -0 1.173663807e-05)
(0 -0 1.156098142e-05)
(0 -0 9.084509511e-06)
(0 -0 9.036162673e-06)
(0 -0 8.992233553e-06)
(0 -0 8.957904322e-06)
(0 -0 8.934266059e-06)
(0 -0 8.92126286e-06)
(0 -0 8.918407834e-06)
(0 -0 8.925035257e-06)
(0 -0 8.940369522e-06)
(0 -0 8.96352068e-06)
(0 -0 8.993481778e-06)
(0 -0 9.02916457e-06)
(0 -0 9.069488597e-06)
(0 -0 9.113434525e-06)
(0 -0 9.159996663e-06)
(0 -0 9.208131215e-06)
(0 -0 9.256977379e-06)
(0 -0 9.305631375e-06)
(0 -0 9.353068455e-06)
(0 -0 9.398315425e-06)
(0 -0 9.440491478e-06)
(0 -0 9.478779925e-06)
(0 -0 9.512421166e-06)
(0 -0 9.540707489e-06)
(0 -0 9.562982145e-06)
(0 -0 9.578641663e-06)
(0 -0 9.587137967e-06)
(0 -0 9.58797947e-06)
(0 -0 9.580731385e-06)
(0 -0 9.565015613e-06)
(0 -0 9.540510667e-06)
(0 -0 9.506952217e-06)
(0 -0 9.464134769e-06)
(0 -0 9.411914617e-06)
(0 -0 9.350213633e-06)
(0 -0 9.279023051e-06)
(0 -0 9.198406214e-06)
(0 -0 9.108499417e-06)
(0 -0 9.009510531e-06)
(0 -0 8.901716134e-06)
(0 -0 8.785458262e-06)
(0 -0 8.661141159e-06)
(0 -0 8.52922793e-06)
(0 -0 8.390237277e-06)
(0 -0 8.244739994e-06)
(0 -0 8.093353802e-06)
(0 -0 7.936735967e-06)
(0 -0 7.775576219e-06)
(0 -0 7.6105916e-06)
(0 -0 7.442519311e-06)
(0 -0 5.723373983e-06)
(0 -0 5.665849038e-06)
(0 -0 5.611467853e-06)
(0 -0 5.566069324e-06)
(0 -0 5.530964062e-06)
(0 -0 5.506225426e-06)
(0 -0 5.491488843e-06)
(0 -0 5.486212347e-06)
(0 -0 5.489740069e-06)
(0 -0 5.501294213e-06)
(0 -0 5.519991278e-06)
(0 -0 5.544877057e-06)
(0 -0 5.57494965e-06)
(0 -0 5.609256091e-06)
(0 -0 5.646905188e-06)
(0 -0 5.687005722e-06)
(0 -0 5.72855659e-06)
(0 -0 5.770580034e-06)
(0 -0 5.812142404e-06)
(0 -0 5.852349479e-06)
(0 -0 5.89034856e-06)
(0 -0 5.925325806e-06)
(0 -0 5.956507754e-06)
(0 -0 5.983165823e-06)
(0 -0 6.004619531e-06)
(0 -0 6.020238681e-06)
(0 -0 6.029444987e-06)
(0 -0 6.031712901e-06)
(0 -0 6.026569956e-06)
(0 -0 6.013597334e-06)
(0 -0 5.99243131e-06)
(0 -0 5.962766149e-06)
(0 -0 5.924358439e-06)
(0 -0 5.877032118e-06)
(0 -0 5.820682704e-06)
(0 -0 5.755279332e-06)
(0 -0 5.680864072e-06)
(0 -0 5.597549107e-06)
(0 -0 5.505512954e-06)
(0 -0 5.404997157e-06)
(0 -0 5.296304556e-06)
(0 -0 5.179798886e-06)
(0 -0 5.055904046e-06)
(0 -0 4.925102032e-06)
(0 -0 4.787930004e-06)
(0 -0 4.64497583e-06)
(0 -0 4.496870255e-06)
(0 -0 4.344277254e-06)
(0 -0 4.187886933e-06)
(0 -0 4.028410257e-06)
(0 -0 2.822099591e-06)
(0 -0 2.756201713e-06)
(0 -0 2.692660625e-06)
(0 -0 2.637938722e-06)
(0 -0 2.593524004e-06)
(0 -0 2.559572329e-06)
(0 -0 2.535794441e-06)
(0 -0 2.521733661e-06)
(0 -0 2.516810751e-06)
(0 -0 2.520309334e-06)
(0 -0 2.531388473e-06)
(0 -0 2.549163569e-06)
(0 -0 2.572737865e-06)
(0 -0 2.601193798e-06)
(0 -0 2.633599502e-06)
(0 -0 2.669043791e-06)
(0 -0 2.706611738e-06)
(0 -0 2.745378942e-06)
(0 -0 2.784432808e-06)
(0 -0 2.822885104e-06)
(0 -0 2.859875577e-06)
(0 -0 2.894576625e-06)
(0 -0 2.926199397e-06)
(0 -0 2.95399757e-06)
(0 -0 2.977269074e-06)
(0 -0 2.995357772e-06)
(0 -0 3.007655151e-06)
(0 -0 3.013601564e-06)
(0 -0 3.012687811e-06)
(0 -0 3.004458164e-06)
(0 -0 2.988515355e-06)
(0 -0 2.964526919e-06)
(0 -0 2.932231277e-06)
(0 -0 2.89144145e-06)
(0 -0 2.84204497e-06)
(0 -0 2.783999934e-06)
(0 -0 2.717328909e-06)
(0 -0 2.642113356e-06)
(0 -0 2.558490793e-06)
(0 -0 2.466655439e-06)
(0 -0 2.366861852e-06)
(0 -0 2.25942981e-06)
(0 -0 2.144746966e-06)
(0 -0 2.02326654e-06)
(0 -0 1.89550151e-06)
(0 -0 1.762018701e-06)
(0 -0 1.623432458e-06)
(0 -0 1.480394623e-06)
(0 -0 1.333582008e-06)
(0 -0 1.183687031e-06)
(0 -0 3.098014366e-07)
(0 -0 2.376296632e-07)
(0 -0 1.671569546e-07)
(0 -0 1.05324916e-07)
(0 -0 5.380277991e-08)
(0 -0 1.285292426e-08)
(0 -0 -1.773667468e-08)
(0 -0 -3.834498933e-08)
(0 -0 -4.946768474e-08)
(0 -0 -5.173980651e-08)
(0 -0 -4.593505653e-08)
(0 -0 -3.292537008e-08)
(0 -0 -1.359422169e-08)
(0 -0 1.118674277e-08)
(0 -0 4.055153397e-08)
(0 -0 7.362212175e-08)
(0 -0 1.095016739e-07)
(0 -0 1.472809998e-07)
(0 -0 1.860510466e-07)
(0 -0 2.249177633e-07)
(0 -0 2.630124702e-07)
(0 -0 2.994972412e-07)
(0 -0 3.335683623e-07)
(0 -0 3.644596691e-07)
(0 -0 3.914455922e-07)
(0 -0 4.138435928e-07)
(0 -0 4.310160634e-07)
(0 -0 4.423722976e-07)
(0 -0 4.473716714e-07)
(0 -0 4.45528941e-07)
(0 -0 4.364214584e-07)
(0 -0 4.19696586e-07)
(0 -0 3.950766286e-07)
(0 -0 3.623591065e-07)
(0 -0 3.214121229e-07)
(0 -0 2.721667967e-07)
(0 -0 2.14610104e-07)
(0 -0 1.487813869e-07)
(0 -0 7.477401048e-08)
(0 -0 -7.259081568e-09)
(0 -0 -9.709863554e-08)
(0 -0 -1.944533477e-07)
(0 -0 -2.989570625e-07)
(0 -0 -4.101714638e-07)
(0 -0 -5.275944877e-07)
(0 -0 -6.506699071e-07)
(0 -0 -7.787944141e-07)
(0 -0 -9.113257946e-07)
(0 -0 -1.047595627e-06)
(0 -0 -1.186921958e-06)
(0 -0 -1.856264616e-06)
(0 -0 -1.934697311e-06)
(0 -0 -2.011883264e-06)
(0 -0 -2.080357705e-06)
(0 -0 -2.138299032e-06)
(0 -0 -2.185373038e-06)
(0 -0 -2.221729439e-06)
(0 -0 -2.247699619e-06)
(0 -0 -2.263737985e-06)
(0 -0 -2.270443556e-06)
(0 -0 -2.268551339e-06)
(0 -0 -2.258882147e-06)
(0 -0 -2.24228249e-06)
(0 -0 -2.219593825e-06)
(0 -0 -2.191657612e-06)
(0 -0 -2.159333966e-06)
(0 -0 -2.123510161e-06)
(0 -0 -2.085093175e-06)
(0 -0 -2.044994044e-06)
(0 -0 -2.004112247e-06)
(0 -0 -1.9633258e-06)
(0 -0 -1.923486648e-06)
(0 -0 -1.885417277e-06)
(0 -0 -1.849906407e-06)
(0 -0 -1.817704413e-06)
(0 -0 -1.789519547e-06)
(0 -0 -1.766015165e-06)
(0 -0 -1.747807404e-06)
(0 -0 -1.735462234e-06)
(0 -0 -1.729491053e-06)
(0 -0 -1.730344946e-06)
(0 -0 -1.738408886e-06)
(0 -0 -1.753997757e-06)
(0 -0 -1.777355532e-06)
(0 -0 -1.808657558e-06)
(0 -0 -1.848014495e-06)
(0 -0 -1.895475753e-06)
(0 -0 -1.951030364e-06)
(0 -0 -2.014604311e-06)
(0 -0 -2.086055598e-06)
(0 -0 -2.165170283e-06)
(0 -0 -2.25166141e-06)
(0 -0 -2.345169679e-06)
(0 -0 -2.445265524e-06)
(0 -0 -2.551454931e-06)
(0 -0 -2.663188741e-06)
(0 -0 -2.779871883e-06)
(0 -0 -2.900872631e-06)
(0 -0 -3.025534288e-06)
(0 -0 -3.153187205e-06)
(0 -0 -3.725353529e-06)
(0 -0 -3.810488635e-06)
(0 -0 -3.894559232e-06)
(0 -0 -3.969516735e-06)
(0 -0 -4.033411721e-06)
(0 -0 -4.085882086e-06)
(0 -0 -4.127065422e-06)
(0 -0 -4.157277958e-06)
(0 -0 -4.176961438e-06)
(0 -0 -4.186702504e-06)
(0 -0 -4.187225183e-06)
(0 -0 -4.17933897e-06)
(0 -0 -4.163877916e-06)
(0 -0 -4.141671165e-06)
(0 -0 -4.113550517e-06)
(0 -0 -4.08037109e-06)
(0 -0 -4.043020518e-06)
(0 -0 -4.00241046e-06)
(0 -0 -3.959459086e-06)
(0 -0 -3.915075453e-06)
(0 -0 -3.870150354e-06)
(0 -0 -3.825551855e-06)
(0 -0 -3.782121669e-06)
(0 -0 -3.740670244e-06)
(0 -0 -3.701971014e-06)
(0 -0 -3.6667552e-06)
(0 -0 -3.635708135e-06)
(0 -0 -3.609467002e-06)
(0 -0 -3.588619088e-06)
(0 -0 -3.573699551e-06)
(0 -0 -3.565188214e-06)
(0 -0 -3.563505523e-06)
(0 -0 -3.569008301e-06)
(0 -0 -3.581985962e-06)
(0 -0 -3.602657741e-06)
(0 -0 -3.631171107e-06)
(0 -0 -3.667601267e-06)
(0 -0 -3.711951268e-06)
(0 -0 -3.764151748e-06)
(0 -0 -3.824059827e-06)
(0 -0 -3.891458625e-06)
(0 -0 -3.966059362e-06)
(0 -0 -4.047504695e-06)
(0 -0 -4.135371058e-06)
(0 -0 -4.229171919e-06)
(0 -0 -4.328364962e-06)
(0 -0 -4.432361742e-06)
(0 -0 -4.540537368e-06)
(0 -0 -4.652241984e-06)
(0 -0 -4.766815062e-06)
(0 -0 -5.336729513e-06)
(0 -0 -5.427174414e-06)
(0 -0 -5.516740223e-06)
(0 -0 -5.596913138e-06)
(0 -0 -5.665596106e-06)
(0 -0 -5.722360842e-06)
(0 -0 -5.767301857e-06)
(0 -0 -5.800700403e-06)
(0 -0 -5.822970293e-06)
(0 -0 -5.834677129e-06)
(0 -0 -5.836529704e-06)
(0 -0 -5.829325573e-06)
(0 -0 -5.813888429e-06)
(0 -0 -5.791038726e-06)
(0 -0 -5.761602905e-06)
(0 -0 -5.726435469e-06)
(0 -0 -5.686428377e-06)
(0 -0 -5.642501536e-06)
(0 -0 -5.595584196e-06)
(0 -0 -5.546598787e-06)
(0 -0 -5.496451691e-06)
(0 -0 -5.446028821e-06)
(0 -0 -5.396191912e-06)
(0 -0 -5.347773274e-06)
(0 -0 -5.301569399e-06)
(0 -0 -5.258334886e-06)
(0 -0 -5.218777879e-06)
(0 -0 -5.183557229e-06)
(0 -0 -5.153280841e-06)
(0 -0 -5.128504331e-06)
(0 -0 -5.109729187e-06)
(0 -0 -5.097399894e-06)
(0 -0 -5.091899991e-06)
(0 -0 -5.093547462e-06)
(0 -0 -5.102590174e-06)
(0 -0 -5.119201971e-06)
(0 -0 -5.143479906e-06)
(0 -0 -5.175443073e-06)
(0 -0 -5.215033067e-06)
(0 -0 -5.262114887e-06)
(0 -0 -5.316477625e-06)
(0 -0 -5.377836366e-06)
(0 -0 -5.445836117e-06)
(0 -0 -5.520055546e-06)
(0 -0 -5.60001014e-06)
(0 -0 -5.685158716e-06)
(0 -0 -5.774914243e-06)
(0 -0 -5.868654097e-06)
(0 -0 -5.965730626e-06)
(0 -0 -6.065486743e-06)
(0 -0 -6.707746546e-06)
(0 -0 -6.803365279e-06)
(0 -0 -6.898168126e-06)
(0 -0 -6.983191922e-06)
(0 -0 -7.056210625e-06)
(0 -0 -7.116746197e-06)
(0 -0 -7.164863106e-06)
(0 -0 -7.200817713e-06)
(0 -0 -7.225003859e-06)
(0 -0 -7.237973318e-06)
(0 -0 -7.240426106e-06)
(0 -0 -7.233153675e-06)
(0 -0 -7.216974592e-06)
(0 -0 -7.192705071e-06)
(0 -0 -7.161169549e-06)
(0 -0 -7.123224225e-06)
(0 -0 -7.079766989e-06)
(0 -0 -7.031727444e-06)
(0 -0 -6.980047497e-06)
(0 -0 -6.925664507e-06)
(0 -0 -6.869501553e-06)
(0 -0 -6.812462714e-06)
(0 -0 -6.755429177e-06)
(0 -0 -6.699253849e-06)
(0 -0 -6.644754717e-06)
(0 -0 -6.592708386e-06)
(0 -0 -6.54384492e-06)
(0 -0 -6.498844333e-06)
(0 -0 -6.458334505e-06)
(0 -0 -6.422889782e-06)
(0 -0 -6.393029345e-06)
(0 -0 -6.369214531e-06)
(0 -0 -6.351845052e-06)
(0 -0 -6.341254679e-06)
(0 -0 -6.337707183e-06)
(0 -0 -6.341392813e-06)
(0 -0 -6.352425107e-06)
(0 -0 -6.370838467e-06)
(0 -0 -6.396587561e-06)
(0 -0 -6.42954832e-06)
(0 -0 -6.469518684e-06)
(0 -0 -6.516219241e-06)
(0 -0 -6.569296741e-06)
(0 -0 -6.62832986e-06)
(0 -0 -6.692833587e-06)
(0 -0 -6.762264496e-06)
(0 -0 -6.83603111e-06)
(0 -0 -6.913506211e-06)
(0 -0 -6.99403995e-06)
(0 -0 -7.076977062e-06)
(0 -0 -7.857686229e-06)
(0 -0 -7.958182164e-06)
(0 -0 -8.057863978e-06)
(0 -0 -8.147338355e-06)
(0 -0 -8.224255445e-06)
(0 -0 -8.28809082e-06)
(0 -0 -8.338882173e-06)
(0 -0 -8.37686428e-06)
(0 -0 -8.402414305e-06)
(0 -0 -8.416073664e-06)
(0 -0 -8.418537204e-06)
(0 -0 -8.410593947e-06)
(0 -0 -8.393060659e-06)
(0 -0 -8.366752126e-06)
(0 -0 -8.332492813e-06)
(0 -0 -8.291141914e-06)
(0 -0 -8.243604072e-06)
(0 -0 -8.190819363e-06)
(0 -0 -8.133742985e-06)
(0 -0 -8.073327371e-06)
(0 -0 -8.010511797e-06)
(0 -0 -7.946217406e-06)
(0 -0 -7.881343238e-06)
(0 -0 -7.816760719e-06)
(0 -0 -7.753306742e-06)
(0 -0 -7.691776828e-06)
(0 -0 -7.632919701e-06)
(0 -0 -7.577433656e-06)
(0 -0 -7.525964295e-06)
(0 -0 -7.479102755e-06)
(0 -0 -7.437383523e-06)
(0 -0 -7.401281335e-06)
(0 -0 -7.371207324e-06)
(0 -0 -7.347505085e-06)
(0 -0 -7.330447308e-06)
(0 -0 -7.320233087e-06)
(0 -0 -7.316985217e-06)
(0 -0 -7.320747138e-06)
(0 -0 -7.331480919e-06)
(0 -0 -7.349067813e-06)
(0 -0 -7.373309841e-06)
(0 -0 -7.403930104e-06)
(0 -0 -7.440574522e-06)
(0 -0 -7.482817813e-06)
(0 -0 -7.530170494e-06)
(0 -0 -7.582084624e-06)
(0 -0 -7.637962598e-06)
(0 -0 -7.697170632e-06)
(0 -0 -7.7590532e-06)
(0 -0 -7.822951387e-06)
(0 -0 -8.801619417e-06)
(0 -0 -8.906709305e-06)
(0 -0 -9.010936544e-06)
(0 -0 -9.104499452e-06)
(0 -0 -9.184930784e-06)
(0 -0 -9.251662683e-06)
(0 -0 -9.3047082e-06)
(0 -0 -9.344282306e-06)
(0 -0 -9.370747166e-06)
(0 -0 -9.384635656e-06)
(0 -0 -9.386639658e-06)
(0 -0 -9.377548053e-06)
(0 -0 -9.358177891e-06)
(0 -0 -9.329344149e-06)
(0 -0 -9.291872501e-06)
(0 -0 -9.246625953e-06)
(0 -0 -9.194516439e-06)
(0 -0 -9.136494675e-06)
(0 -0 -9.0735289e-06)
(0 -0 -9.006585878e-06)
(0 -0 -8.936619893e-06)
(0 -0 -8.864567625e-06)
(0 -0 -8.791344121e-06)
(0 -0 -8.717837012e-06)
(0 -0 -8.644899109e-06)
(0 -0 -8.573341209e-06)
(0 -0 -8.503926715e-06)
(0 -0 -8.437368363e-06)
(0 -0 -8.37432603e-06)
(0 -0 -8.315404321e-06)
(0 -0 -8.261149339e-06)
(0 -0 -8.21204497e-06)
(0 -0 -8.16850925e-06)
(0 -0 -8.130890898e-06)
(0 -0 -8.099466126e-06)
(0 -0 -8.074436083e-06)
(0 -0 -8.055924792e-06)
(0 -0 -8.043976573e-06)
(0 -0 -8.038553144e-06)
(0 -0 -8.039532994e-06)
(0 -0 -8.046713757e-06)
(0 -0 -8.059814277e-06)
(0 -0 -8.078475631e-06)
(0 -0 -8.102265664e-06)
(0 -0 -8.130686512e-06)
(0 -0 -8.163180761e-06)
(0 -0 -8.199140835e-06)
(0 -0 -8.237919573e-06)
(0 -0 -8.278844187e-06)
(0 -0 -8.32126736e-06)
(0 -0 -9.551521316e-06)
(0 -0 -9.660937755e-06)
(0 -0 -9.769405901e-06)
(0 -0 -9.866735468e-06)
(0 -0 -9.95034825e-06)
(0 -0 -1.001963551e-05)
(0 -0 -1.007458714e-05)
(0 -0 -1.011539947e-05)
(0 -0 -1.014242076e-05)
(0 -0 -1.01561766e-05)
(0 -0 -1.015735734e-05)
(0 -0 -1.014675302e-05)
(0 -0 -1.0125182e-05)
(0 -0 -1.009346018e-05)
(0 -0 -1.005241496e-05)
(0 -0 -1.000291355e-05)
(0 -0 -9.945875397e-06)
(0 -0 -9.882261474e-06)
(0 -0 -9.813052054e-06)
(0 -0 -9.739226908e-06)
(0 -0 -9.661753927e-06)
(0 -0 -9.581583759e-06)
(0 -0 -9.499645417e-06)
(0 -0 -9.416839988e-06)
(0 -0 -9.334032844e-06)
(0 -0 -9.252046429e-06)
(0 -0 -9.171655153e-06)
(0 -0 -9.093582331e-06)
(0 -0 -9.018497734e-06)
(0 -0 -8.947014427e-06)
(0 -0 -8.879684682e-06)
(0 -0 -8.816995889e-06)
(0 -0 -8.759367239e-06)
(0 -0 -8.707146752e-06)
(0 -0 -8.660607927e-06)
(0 -0 -8.619946531e-06)
(0 -0 -8.585278702e-06)
(0 -0 -8.556639928e-06)
(0 -0 -8.533983085e-06)
(0 -0 -8.517176214e-06)
(0 -0 -8.50600343e-06)
(0 -0 -8.500168979e-06)
(0 -0 -8.499300833e-06)
(0 -0 -8.502956644e-06)
(0 -0 -8.510628543e-06)
(0 -0 -8.521754746e-06)
(0 -0 -8.535715907e-06)
(0 -0 -8.551824689e-06)
(0 -0 -8.569386372e-06)
(0 -0 -8.58784038e-06)
(0 -0 -1.011723198e-05)
(0 -0 -1.023071397e-05)
(0 -0 -1.034313596e-05)
(0 -0 -1.044393794e-05)
(0 -0 -1.053043722e-05)
(0 -0 -1.060198643e-05)
(0 -0 -1.06585534e-05)
(0 -0 -1.070031664e-05)
(0 -0 -1.072761125e-05)
(0 -0 -1.074095636e-05)
(0 -0 -1.074104154e-05)
(0 -0 -1.072865849e-05)
(0 -0 -1.070462726e-05)
(0 -0 -1.0669765e-05)
(0 -0 -1.062490122e-05)
(0 -0 -1.057090745e-05)
(0 -0 -1.050871029e-05)
(0 -0 -1.043928012e-05)
(0 -0 -1.036360798e-05)
(0 -0 -1.028268525e-05)
(0 -0 -1.019749197e-05)
(0 -0 -1.010899106e-05)
(0 -0 -1.00181232e-05)
(0 -0 -9.925799922e-06)
(0 -0 -9.832895697e-06)
(0 -0 -9.74024113e-06)
(0 -0 -9.648618117e-06)
(0 -0 -9.558756405e-06)
(0 -0 -9.471330365e-06)
(0 -0 -9.386955325e-06)
(0 -0 -9.306183417e-06)
(0 -0 -9.229499354e-06)
(0 -0 -9.157316789e-06)
(0 -0 -9.089975367e-06)
(0 -0 -9.027737752e-06)
(0 -0 -8.970786272e-06)
(0 -0 -8.919220453e-06)
(0 -0 -8.873056535e-06)
(0 -0 -8.832227096e-06)
(0 -0 -8.796578672e-06)
(0 -0 -8.765871014e-06)
(0 -0 -8.739782188e-06)
(0 -0 -8.717917518e-06)
(0 -0 -8.699817192e-06)
(0 -0 -8.684961459e-06)
(0 -0 -8.672809214e-06)
(0 -0 -8.662701263e-06)
(0 -0 -8.653989502e-06)
(0 -0 -8.646156254e-06)
(0 -0 -8.63824507e-06)
(0 -0 -1.050714793e-05)