/*--------------------------------*- C++ -*----------------------------------*\
| =========                 |                                                 |
| \\      /  F ield         | foam-extend: Open Source CFD                    |
|  \\    /   O peration     | Version:     4.1                                |
|   \\  /    A nd           | Web:         http://www.foam-extend.org         |
|    \\/     M anipulation  |                                                 |
\*---------------------------------------------------------------------------*/
FoamFile
{
    version     2.0;
    format      ascii;
    class       volScalarField;
    location    "170000";
    object      p;
}
// * * * * * * * * * * * * * * * * * * * * * * * * * * * * * * * * * * * * * //

dimensions      [0 2 -2 0 0 0 0];

internalField   nonuniform List<scalar> 
15920
(
1.84117895e-08
1.558669436e-08
1.339504453e-08
1.227617632e-08
1.147769923e-08
1.06535694e-08
9.851185442e-09
9.148383625e-09
8.548490928e-09
8.029833405e-09
7.581427465e-09
7.199877118e-09
6.880210458e-09
6.614434497e-09
6.393627204e-09
6.209261429e-09
6.053487018e-09
5.919210942e-09
5.800236267e-09
5.691355274e-09
5.588338406e-09
5.487852995e-09
5.387354678e-09
5.284971229e-09
5.1793872e-09
5.069738653e-09
4.955518177e-09
4.83649237e-09
4.712633555e-09
4.584065117e-09
4.451018725e-09
4.31380169e-09
4.172772806e-09
4.02832505e-09
3.880873668e-09
3.730848342e-09
3.578688473e-09
3.424840776e-09
3.269758608e-09
3.113902427e-09
2.957740738e-09
2.801750856e-09
2.646419147e-09
2.492240774e-09
2.339719156e-09
2.189365298e-09
2.041696915e-09
1.897237102e-09
1.756512241e-09
1.62004904e-09
1.311114362e-08
1.276053401e-08
1.219254241e-08
1.166381253e-08
1.115224718e-08
1.057686784e-08
9.963202578e-09
9.366664203e-09
8.813021013e-09
8.308417943e-09
7.85671779e-09
7.461470013e-09
7.122369859e-09
6.834844179e-09
6.591955799e-09
6.386181856e-09
6.210213841e-09
6.057265528e-09
5.921284729e-09
5.797096326e-09
5.680434621e-09
5.56788945e-09
5.456815674e-09
5.345221895e-09
5.231649438e-09
5.115090343e-09
4.994901218e-09
4.870722815e-09
4.742412787e-09
4.609991624e-09
4.473600038e-09
4.333466153e-09
4.189880916e-09
4.043180163e-09
3.893731929e-09
3.741927795e-09
3.588177195e-09
3.432903798e-09
3.27654332e-09
3.119542519e-09
2.962359094e-09
2.805461924e-09
2.649331062e-09
2.494457259e-09
2.341341159e-09
2.190492321e-09
2.042427966e-09
1.89767126e-09
1.756748915e-09
1.620187773e-09
1.258850824e-08
1.242539727e-08
1.198338014e-08
1.142362685e-08
1.088318261e-08
1.036503487e-08
9.849626355e-09
9.348462169e-09
8.878787119e-09
8.447070871e-09
8.05373885e-09
7.698860493e-09
7.382069959e-09
7.101281077e-09
6.853051836e-09
6.633369293e-09
6.438073234e-09
6.262998814e-09
6.104104642e-09
5.957626075e-09
5.820191949e-09
5.688879585e-09
5.561223894e-09
5.435217758e-09
5.309298685e-09
5.18227204e-09
5.053254311e-09
4.921629577e-09
4.787007165e-09
4.649180606e-09
4.508091168e-09
4.363797274e-09
4.216449491e-09
4.066270485e-09
3.91353932e-09
3.758579524e-09
3.601750206e-09
3.443439588e-09
3.284060427e-09
3.12404697e-09
2.963852992e-09
2.803950399e-09
2.644827893e-09
2.486989475e-09
2.330952774e-09
2.177247209e-09
2.02641164e-09
1.878991392e-09
1.7355355e-09
1.596593034e-09
1.159854324e-08
1.145570317e-08
1.117168113e-08
1.081134332e-08
1.043493193e-08
1.005407527e-08
9.662535798e-09
9.267293201e-09
8.882899872e-09
8.518692734e-09
8.177997986e-09
7.862228229e-09
7.572298712e-09
7.30804758e-09
7.068063797e-09
6.850099331e-09
6.651478863e-09
6.469332675e-09
6.300745577e-09
6.142895439e-09
5.99316914e-09
5.849234772e-09
5.709074888e-09
5.570995389e-09
5.433612871e-09
5.295822194e-09
5.156767067e-09
5.015813805e-09
4.872522873e-09
4.726619319e-09
4.577965501e-09
4.4265376e-09
4.272405903e-09
4.115718527e-09
3.956688283e-09
3.795582369e-09
3.632714407e-09
3.468438315e-09
3.303143565e-09
3.137251532e-09
2.971212627e-09
2.805503909e-09
2.640626859e-09
2.47710497e-09
2.315481095e-09
2.15631444e-09
2.000177439e-09
1.847652427e-09
1.699326917e-09
1.55578889e-09
1.096559063e-08
1.089470983e-08
1.072299441e-08
1.047169424e-08
1.017895949e-08
9.866318934e-09
9.540513219e-09
9.208124815e-09
8.878798746e-09
8.560476153e-09
8.25742003e-09
7.971744456e-09
7.704685811e-09
7.456642297e-09
7.227021938e-09
7.01445079e-09
6.817107412e-09
6.63295461e-09
6.459871908e-09
6.295756076e-09
6.138607793e-09
5.986593725e-09
5.838080996e-09
5.691651276e-09
5.546101938e-09
5.400438076e-09
5.253858831e-09
5.105741325e-09
4.955622659e-09
4.803181169e-09
4.648218646e-09
4.490644382e-09
4.3304613e-09
4.167754123e-09
4.00267946e-09
3.835457566e-09
3.666365516e-09
3.495731602e-09
3.323930809e-09
3.151381008e-09
2.978539708e-09
2.805901159e-09
2.633993393e-09
2.463374985e-09
2.294631413e-09
2.128371006e-09
1.965220462e-09
1.805819915e-09
1.650817474e-09
1.500863487e-09
1.048479362e-08
1.043458133e-08
1.030893827e-08
1.01178861e-08
9.887743887e-09
9.636555364e-09
9.371675515e-09
9.097960257e-09
8.821769846e-09
8.549348907e-09
8.284987622e-09
8.031188026e-09
7.789456865e-09
7.560594578e-09
7.344674904e-09
7.141127979e-09
6.948939203e-09
6.766826359e-09
6.593354869e-09
6.427022739e-09
6.26633511e-09
6.109865002e-09
5.956295125e-09
5.804442952e-09
5.653273891e-09
5.501905393e-09
5.349604043e-09
5.195778244e-09
5.039968898e-09
4.881838906e-09
4.721162074e-09
4.55781247e-09
4.391754813e-09
4.223036135e-09
4.051778605e-09
3.87817334e-09
3.702474877e-09
3.524996698e-09
3.346107603e-09
3.1662284e-09
2.985829018e-09
2.805425799e-09
2.625578286e-09
2.446885263e-09
2.269980395e-09
2.095527458e-09
1.924215035e-09
1.756750635e-09
1.593854244e-09
1.436251284e-09
1.010861832e-08
1.007067218e-08
9.976847628e-09
9.832386267e-09
9.653556289e-09
9.452596577e-09
9.235748029e-09
9.007527609e-09
8.773110541e-09
8.537642426e-09
8.305069841e-09
8.07799721e-09
7.858119951e-09
7.646502964e-09
7.443628402e-09
7.249438076e-09
7.063450916e-09
6.884896191e-09
6.712816578e-09
6.546145131e-09
6.383770151e-09
6.224589806e-09
6.06755348e-09
5.911689913e-09
5.756124869e-09
5.600090954e-09
5.442931585e-09
5.284100645e-09
5.123159341e-09
4.959771314e-09
4.793696874e-09
4.624787272e-09
4.452979084e-09
4.278289568e-09
4.100811715e-09
3.92071037e-09
3.738219024e-09
3.553637077e-09
3.367327354e-09
3.179713647e-09
2.991278575e-09
2.802561681e-09
2.614155731e-09
2.426701795e-09
2.240885084e-09
2.057429805e-09
1.877092898e-09
1.700657119e-09
1.52892347e-09
1.362702726e-09
9.812768993e-09
9.783624751e-09
9.711339351e-09
9.598507037e-09
9.455706869e-09
9.291519829e-09
9.111114289e-09
8.91855642e-09
8.718084356e-09
8.513786014e-09
8.308975059e-09
8.106049416e-09
7.906691672e-09
7.712046652e-09
7.52278082e-09
7.339118866e-09
7.160918888e-09
6.987766705e-09
6.819057837e-09
6.65406136e-09
6.491972987e-09
6.33196071e-09
6.173201818e-09
6.014910762e-09
5.856358917e-09
5.696887875e-09
5.535917964e-09
5.372952769e-09
5.207580978e-09
5.039476024e-09
4.868394037e-09
4.694172407e-09
4.516727827e-09
4.336058112e-09
4.152236297e-09
3.965407716e-09
3.775790225e-09
3.583675073e-09
3.389424873e-09
3.193471063e-09
2.996312403e-09
2.798516725e-09
2.600717134e-09
2.403603206e-09
2.207918308e-09
2.014455009e-09
1.824048088e-09
1.637566421e-09
1.455903592e-09
1.27996699e-09
9.578731898e-09
9.555529819e-09
9.497883099e-09
9.407218724e-09
9.290997683e-09
9.155361854e-09
9.004221058e-09
8.840825576e-09
8.668536029e-09
8.490594564e-09
8.309740233e-09
8.128093988e-09
7.947240678e-09
7.768325293e-09
7.592100044e-09
7.418956594e-09
7.248976404e-09
7.081994848e-09
6.917662285e-09
6.755495326e-09
6.594920637e-09
6.435313379e-09
6.2760298e-09
6.116433699e-09
5.955916656e-09
5.793913106e-09
5.629912046e-09
5.46346253e-09
5.294179072e-09
5.121747926e-09
4.945927243e-09
4.766546205e-09
4.583499228e-09
4.396772406e-09
4.206421891e-09
4.012577245e-09
3.815443657e-09
3.615306064e-09
3.412529367e-09
3.207557505e-09
3.000913603e-09
2.793195283e-09
2.585072887e-09
2.377290835e-09
2.170660644e-09
1.966053223e-09
1.764391415e-09
1.566641616e-09
1.373804905e-09
1.186900556e-09
9.393793704e-09
9.374861276e-09
9.327826097e-09
9.25352511e-09
9.157439519e-09
9.043993191e-09
8.916021688e-09
8.776029311e-09
8.626693301e-09
8.470627573e-09
8.310091917e-09
8.146908313e-09
7.982501548e-09
7.817949775e-09
7.654012993e-09
7.491156634e-09
7.329586097e-09
7.169290778e-09
7.010088649e-09
6.851666309e-09
6.693614957e-09
6.535462221e-09
6.376699875e-09
6.216808433e-09
6.055273914e-09
5.891601682e-09
5.72534021e-09
5.556077294e-09
5.383444995e-09
5.207137434e-09
5.026910907e-09
4.842585686e-09
4.654056186e-09
4.461273843e-09
4.264272581e-09
4.063166941e-09
3.858154224e-09
3.649514694e-09
3.437614433e-09
3.222908685e-09
3.00594226e-09
2.787348231e-09
2.567847143e-09
2.348245219e-09
2.129429295e-09
1.912360182e-09
1.698064194e-09
1.487622175e-09
1.282155281e-09
1.082815583e-09
9.248892018e-09
9.233152032e-09
9.194042701e-09
9.132050409e-09
9.05133866e-09
8.955172729e-09
8.845609865e-09
8.724556112e-09
8.594128833e-09
8.456424318e-09
8.313281391e-09
8.166223531e-09
8.016485284e-09
7.865037089e-09
7.712596777e-09
7.559643182e-09
7.406439245e-09
7.253062305e-09
7.099436221e-09
6.945361011e-09
6.790543077e-09
6.634618527e-09
6.477174595e-09
6.317783259e-09
6.1560052e-09
5.991378935e-09
5.823509016e-09
5.652004398e-09
5.476519193e-09
5.296742265e-09
5.112415383e-09
4.923344419e-09
4.729401244e-09
4.530521282e-09
4.326715089e-09
4.118076945e-09
3.904788244e-09
3.687120267e-09
3.465439559e-09
3.240212306e-09
3.012006474e-09
2.781492979e-09
2.549445715e-09
2.31673975e-09
2.084347301e-09
1.853331164e-09
1.624835147e-09
1.400071641e-09
1.180307294e-09
9.668475236e-10
9.137258724e-09
9.123959667e-09
9.090909351e-09
9.038382446e-09
8.969639534e-09
8.887151618e-09
8.792412321e-09
8.686849758e-09
8.572117289e-09
8.449883244e-09
8.32163242e-09
8.188621384e-09
8.051896811e-09
7.912306145e-09
7.770497954e-09
7.626927609e-09
7.481872109e-09
7.335449719e-09
7.187642453e-09
7.038315077e-09
6.88725469e-09
6.734171864e-09
6.578694355e-09
6.420469467e-09
6.259094867e-09
6.094191889e-09
5.925337065e-09
5.752152387e-09
5.574288814e-09
5.391433583e-09
5.203315821e-09
5.009715329e-09
4.810472137e-09
4.605492728e-09
4.394758782e-09
4.178336114e-09
3.956382299e-09
3.72915376e-09
3.497012396e-09
3.260431501e-09
3.020000568e-09
2.776428698e-09
2.530546306e-09
2.283304539e-09
2.035771773e-09
1.78912681e-09
1.544648679e-09
1.303702986e-09
1.067724911e-09
8.38199531e-10
9.053719721e-09
9.042329734e-09
9.014018968e-09
8.968929872e-09
8.909677631e-09
8.838169811e-09
8.755490818e-09
8.662700097e-09
8.561080883e-09
8.451956459e-09
8.336519399e-09
8.21579426e-09
8.090651405e-09
7.961810683e-09
7.829835343e-09
7.695131665e-09
7.557961294e-09
7.418455361e-09
7.276621887e-09
7.132325148e-09
6.985422761e-09
6.835653933e-09
6.682735963e-09
6.526292682e-09
6.365953125e-09
6.201333763e-09
6.032042044e-09
5.857696073e-09
5.677930982e-09
5.492410082e-09
5.300832054e-09
5.102939697e-09
4.898531663e-09
4.687472458e-09
4.469702204e-09
4.245247582e-09
4.014232733e-09
3.776889215e-09
3.533565258e-09
3.284734447e-09
3.031003352e-09
2.773117715e-09
2.511966677e-09
2.248583977e-09
1.984145206e-09
1.719960845e-09
1.45746519e-09
1.198201164e-09
9.438010136e-10
6.959632828e-10
8.99423301e-09
8.984368703e-09
8.959841632e-09
8.920709498e-09
8.869112848e-09
8.806551113e-09
8.733812252e-09
8.651674428e-09
8.561129408e-09
8.463223203e-09
8.358906405e-09
8.249003308e-09
8.134224163e-09
8.015166642e-09
7.892303478e-09
7.765977561e-09
7.63640809e-09
7.503715908e-09
7.367896954e-09
7.228897397e-09
7.086510455e-09
6.940507755e-09
6.790603127e-09
6.636455832e-09
6.477696472e-09
6.313935205e-09
6.144771194e-09
5.969801203e-09
5.788629696e-09
5.600880473e-09
5.406206621e-09
5.204300268e-09
4.994904596e-09
4.777826458e-09
4.55294896e-09
4.320244742e-09
4.079789517e-09
3.83177528e-09
3.576523149e-09
3.314495748e-09
3.046308657e-09
2.77274014e-09
2.494738241e-09
2.213424166e-09
1.930091018e-09
1.64619743e-09
1.363356024e-09
1.083316592e-09
8.079437251e-10
5.391890834e-10
8.955572338e-09
8.946957499e-09
8.925513614e-09
8.891243078e-09
8.845930056e-09
8.790774208e-09
8.72635477e-09
8.653219853e-09
8.57213756e-09
8.483933853e-09
8.38936071e-09
8.28907288e-09
8.183636785e-09
8.073536684e-09
7.959155755e-09
7.840776651e-09
7.718579351e-09
7.592629137e-09
7.462919445e-09
7.329362108e-09
7.19177527e-09
7.049918889e-09
6.903498073e-09
6.752168709e-09
6.595547991e-09
6.43322441e-09
6.26476715e-09
6.089735532e-09
5.907688537e-09
5.718195489e-09
5.52084723e-09
5.315267532e-09
5.101126232e-09
4.878153824e-09
4.646156719e-09
4.405033246e-09
4.154790301e-09
3.895560379e-09
3.627618871e-09
3.351401298e-09
3.067519562e-09
2.776775991e-09
2.4801741e-09
2.178925138e-09
1.874449481e-09
1.568371896e-09
1.262510077e-09
9.58855919e-10
6.595491229e-10
3.668433667e-10
8.935107857e-09
8.92752562e-09
8.908639447e-09
8.878415472e-09
8.838351983e-09
8.789407643e-09
8.732083358e-09
8.66667578e-09
8.59379538e-09
8.514094696e-09
8.428162796e-09
8.336513139e-09
8.239594102e-09
8.137780293e-09
8.031372313e-09
7.92058368e-09
7.805537343e-09
7.686268533e-09
7.562737614e-09
7.434827149e-09
7.302343482e-09
7.165027822e-09
7.02256372e-09
6.874583225e-09
6.720674583e-09
6.560390145e-09
6.393254874e-09
6.218775204e-09
6.036447941e-09
5.845770563e-09
5.646253028e-09
5.437430664e-09
5.218878685e-09
4.990228501e-09
4.751185452e-09
4.501547862e-09
4.241227487e-09
3.970271257e-09
3.688884e-09
3.397451463e-09
3.096562414e-09
2.787028356e-09
2.469899587e-09
2.146476656e-09
1.818315989e-09
1.487228035e-09
1.15526632e-09
8.24706473e-10
4.980148948e-10
1.778075099e-10
8.930775408e-09
8.924018809e-09
8.907275729e-09
8.880493697e-09
8.844935741e-09
8.8013932e-09
8.750066234e-09
8.691359803e-09
8.625693796e-09
8.553553845e-09
8.475393869e-09
8.391608236e-09
8.302538785e-09
8.208471178e-09
8.109626721e-09
8.006152747e-09
7.898120058e-09
7.78552377e-09
7.668283959e-09
7.546248831e-09
7.419196396e-09
7.286838653e-09
7.148827083e-09
7.004757915e-09
6.854177773e-09
6.696589764e-09
6.531460383e-09
6.358227284e-09
6.176307912e-09
5.985109591e-09
5.784041482e-09
5.572528338e-09
5.350026271e-09
5.116040667e-09
4.87014627e-09
4.612009645e-09
4.341414232e-09
4.058287779e-09
3.762731466e-09
3.455049726e-09
3.135779606e-09
2.805718248e-09
2.465946865e-09
2.117849613e-09
1.763125491e-09
1.403790837e-09
1.042169828e-09
6.808713342e-10
3.22751728e-10
-2.913561513e-11
8.940543815e-09
8.934534465e-09
8.919653883e-09
8.895836029e-09
8.864155934e-09
8.825253183e-09
8.779320241e-09
8.726578748e-09
8.667360449e-09
8.602042334e-09
8.530969983e-09
8.454439845e-09
8.372705076e-09
8.285972435e-09
8.194392378e-09
8.098051447e-09
7.996968354e-09
7.891092589e-09
7.78030361e-09
7.6644116e-09
7.54315825e-09
7.416218658e-09
7.28320421e-09
7.143665806e-09
6.997097647e-09
6.842941645e-09
6.680592717e-09
6.509405236e-09
6.328700859e-09
6.137778126e-09
5.935924228e-09
5.722429086e-09
5.4966019e-09
5.257790473e-09
5.005403752e-09
4.738938081e-09
4.458007445e-09
4.162377347e-09
3.85200137e-09
3.52705931e-09
3.187995905e-09
2.835558907e-09
2.470834446e-09
2.095276834e-09
1.710729629e-09
1.319434576e-09
9.240250885e-10
5.275018495e-10
1.331895072e-10
-2.55325245e-10
8.962910425e-09
8.957575537e-09
8.944342255e-09
8.923136389e-09
8.894888975e-09
8.86013226e-09
8.819000376e-09
8.771626828e-09
8.71826254e-09
8.659196695e-09
8.594688004e-09
8.52495207e-09
8.450167233e-09
8.370471918e-09
8.285955034e-09
8.196648113e-09
8.102520772e-09
8.003478056e-09
7.899358366e-09
7.78993219e-09
7.674901455e-09
7.553899521e-09
7.426491824e-09
7.292177051e-09
7.150388909e-09
7.000498613e-09
6.841818338e-09
6.673606041e-09
6.495072009e-09
6.305387491e-09
6.10369572e-09
5.88912555e-09
5.660808187e-09
5.417897687e-09
5.159596032e-09
4.88518336e-09
4.594053572e-09
4.285755059e-09
3.960035921e-09
3.616892677e-09
3.256621462e-09
2.87987029e-09
2.487689818e-09
2.081578531e-09
1.663517497e-09
1.23598983e-09
8.019803891e-10
3.649520169e-10
-7.120400991e-11
-5.022443016e-10
8.996496447e-09
8.991760315e-09
8.980000702e-09
8.961139575e-09
8.935984807e-09
8.904980449e-09
8.868211575e-09
8.825757639e-09
8.777802431e-09
8.724563543e-09
8.666229872e-09
8.602951322e-09
8.534844661e-09
8.461991015e-09
8.384426738e-09
8.302135333e-09
8.215042362e-09
8.123011799e-09
8.025842804e-09
7.923266913e-09
7.814945719e-09
7.70046904e-09
7.579353528e-09
7.451041713e-09
7.314901552e-09
7.170226694e-09
7.016237785e-09
6.85208525e-09
6.676853962e-09
6.489570144e-09
6.289210764e-09
6.074715899e-09
5.845004941e-09
5.598997798e-09
5.335642133e-09
5.053947273e-09
4.753025022e-09
4.43213755e-09
4.090752526e-09
3.728605086e-09
3.345765418e-09
2.942709898e-09
2.52039237e-09
2.080310466e-09
1.624560599e-09
1.15587494e-09
6.77633726e-10
1.938463369e-10
-2.909041935e-10
-7.715564057e-10
9.040050412e-09
9.035857045e-09
9.02544117e-09
9.008723997e-09
8.986404844e-09
8.958854898e-09
8.926123505e-09
8.888252083e-09
8.845372367e-09
8.797644685e-09
8.74520257e-09
8.688143926e-09
8.626536313e-09
8.560414266e-09
8.489770624e-09
8.414548443e-09
8.334635444e-09
8.249859592e-09
8.159984781e-09
8.06470661e-09
7.963648424e-09
7.856357661e-09
7.742302432e-09
7.620868307e-09
7.491355423e-09
7.352976175e-09
7.204853952e-09
7.046023329e-09
6.875432056e-09
6.691945175e-09
6.494351722e-09
6.281374846e-09
6.051686607e-09
5.803928838e-09
5.536741365e-09
5.248798549e-09
4.938854839e-09
4.605800219e-09
4.248726548e-09
3.867005263e-09
3.460375394e-09
3.029039131e-09
2.573760659e-09
2.095962188e-09
1.597809315e-09
1.082276481e-09
5.531819812e-10
1.518102071e-11
-5.262935903e-10
-1.065149922e-09
9.092432949e-09
9.088741865e-09
9.079571804e-09
9.064846243e-09
9.045168541e-09
9.020849171e-09
8.991912331e-09
8.958372871e-09
8.920323139e-09
8.877879017e-09
8.831131294e-09
8.780137838e-09
8.724928001e-09
8.665499821e-09
8.601811707e-09
8.533774557e-09
8.461245789e-09
8.384024113e-09
8.301844159e-09
8.214370924e-09
8.121194242e-09
8.021823321e-09
7.915681212e-09
7.802099154e-09
7.680310976e-09
7.549447887e-09
7.40853415e-09
7.256483936e-09
7.092099587e-09
6.914071725e-09
6.720981992e-09
6.511309689e-09
6.283443765e-09
6.035701608e-09
5.766356178e-09
5.473673215e-09
5.155960369e-09
4.81163012e-09
4.439278352e-09
4.037779885e-09
3.606400636e-09
3.144923799e-09
2.653785413e-09
2.134212669e-09
1.588355235e-09
1.019396272e-09
4.31626304e-10
-1.695393827e-10
-7.776180743e-10
-1.385204737e-09
9.152588263e-09
9.14936932e-09
9.141371083e-09
9.128521877e-09
9.111339338e-09
9.090082835e-09
9.064759941e-09
9.035368338e-09
9.001971633e-09
8.964652333e-09
8.923469371e-09
8.878451141e-09
8.829598944e-09
8.776884104e-09
8.720239995e-09
8.659554305e-09
8.594662709e-09
8.525342844e-09
8.451307912e-09
8.372199903e-09
8.287582582e-09
8.196934176e-09
8.099639581e-09
7.994982098e-09
7.882134913e-09
7.760152674e-09
7.627963474e-09
7.484361422e-09
7.328000029e-09
7.157387023e-09
6.9708817e-09
6.766696269e-09
6.542902789e-09
6.29744724e-09
6.028172712e-09
5.732854408e-09
5.409249892e-09
5.055167959e-09
4.668559103e-09
4.247629937e-09
3.79098271e-09
3.297778898e-09
2.767923316e-09
2.202261914e-09
1.602781231e-09
9.727905821e-10
3.170614416e-10
-3.581069099e-10
-1.044927468e-09
-1.734297527e-09
9.219523168e-09
9.21675356e-09
9.209871085e-09
9.198810984e-09
9.18401339e-09
9.165694385e-09
9.143851979e-09
9.118474467e-09
9.089605615e-09
9.057304039e-09
9.021606447e-09
8.982521381e-09
8.940031747e-09
8.894091736e-09
8.844619295e-09
8.791488458e-09
8.734522644e-09
8.673487939e-09
8.608085776e-09
8.537945019e-09
8.462613503e-09
8.381548815e-09
8.294108182e-09
8.19953751e-09
8.096959817e-09
7.985363194e-09
7.863588391e-09
7.730316113e-09
7.584054384e-09
7.423126784e-09
7.245662668e-09
7.049590775e-09
6.832637857e-09
6.59233435e-09
6.326029742e-09
6.03092135e-09
5.70410141e-09
5.342627813e-09
4.943623351e-09
4.504407808e-09
4.02266677e-09
3.496659649e-09
2.925466268e-09
2.309266074e-09
1.649635918e-09
9.498414711e-10
2.150860643e-10
-5.473304172e-10
-1.327997876e-09
-2.115582228e-09
9.292291898e-09
9.289954067e-09
9.284144265e-09
9.274806317e-09
9.262309459e-09
9.2468329e-09
9.228370997e-09
9.206909266e-09
9.182479308e-09
9.155124178e-09
9.12486704e-09
9.091705443e-09
9.055613071e-09
9.016536462e-09
8.974387865e-09
8.929037681e-09
8.880307398e-09
8.827962297e-09
8.771703377e-09
8.711158411e-09
8.645872037e-09
8.57529467e-09
8.49877013e-09
8.415522047e-09
8.324639119e-09
8.225059084e-09
8.115551247e-09
7.99469764e-09
7.860873313e-09
7.712226534e-09
7.546659825e-09
7.361812829e-09
7.155048669e-09
6.923446427e-09
6.663803349e-09
6.372651499e-09
6.046294919e-09
5.680874592e-09
5.272469022e-09
4.817238554e-09
4.311622187e-09
3.75259522e-09
3.137992654e-09
2.466896036e-09
1.740070156e-09
9.604198834e-10
1.334179965e-10
-7.325662695e-10
-1.626128172e-09
-2.532980144e-09
9.369985272e-09
9.368065273e-09
9.363293936e-09
9.35562499e-09
9.345362192e-09
9.332653269e-09
9.317493975e-09
9.299872757e-09
9.279815701e-09
9.257357659e-09
9.232516059e-09
9.205285779e-09
9.17564005e-09
9.143527126e-09
9.108863386e-09
9.071525916e-09
9.031345255e-09
8.988097692e-09
8.941496613e-09
8.891182639e-09
8.836712369e-09
8.777545606e-09
8.713030963e-09
8.642389788e-09
8.564698165e-09
8.478866597e-09
8.383617081e-09
8.277457609e-09
8.158654462e-09
8.025202767e-09
7.874795885e-09
7.704794294e-09
7.512195441e-09
7.293607363e-09
7.045230562e-09
6.76285383e-09
6.441871123e-09
6.077328569e-09
5.664013124e-09
5.196596834e-09
4.669852945e-09
4.078961309e-09
3.419918077e-09
2.690057745e-09
1.888682364e-09
1.01776987e-09
8.269866545e-11
-9.071202721e-10
-1.937857591e-09
-2.991309439e-09
9.451723538e-09
9.450209699e-09
9.446448037e-09
9.44040323e-09
9.432318141e-09
9.422313614e-09
9.410391161e-09
9.396547096e-09
9.380807795e-09
9.363206476e-09
9.34376199e-09
9.322474347e-09
9.299324766e-09
9.274272245e-09
9.247246999e-09
9.218143257e-09
9.18681203e-09
9.153053244e-09
9.116606665e-09
9.077141291e-09
9.034243033e-09
8.987400618e-09
8.935989569e-09
8.879253863e-09
8.816284728e-09
8.745996018e-09
8.667095819e-09
8.578054151e-09
8.477066599e-09
8.362013774e-09
8.230416632e-09
8.079388076e-09
7.905581875e-09
7.705141381e-09
7.473652411e-09
7.206106395e-09
6.896881868e-09
6.539755186e-09
6.127956207e-09
5.654290056e-09
5.111351087e-09
4.491859445e-09
3.789151949e-09
2.997856047e-09
2.114764961e-09
1.139908502e-09
7.776558996e-11
-1.0615215e-09
-2.261198112e-09
-3.497629199e-09
9.536652039e-09
9.535533781e-09
9.532755407e-09
9.528293413e-09
9.522333789e-09
9.51497449e-09
9.506226542e-09
9.49609838e-09
9.484621788e-09
9.471834227e-09
9.457762548e-09
9.442419093e-09
9.425800999e-09
9.407886575e-09
9.388629227e-09
9.367950707e-09
9.34573412e-09
9.321816104e-09
9.295977558e-09
9.267932596e-09
9.237315635e-09
9.203666523e-09
9.166413317e-09
9.124852054e-09
9.078122706e-09
9.025180683e-09
8.964763387e-09
8.895351302e-09
8.815122813e-09
8.721901781e-09
8.613097134e-09
8.485634299e-09
8.335878985e-09
8.1595547e-09
7.951657021e-09
7.706369921e-09
7.416992112e-09
7.075885716e-09
6.674466965e-09
6.203267286e-09
5.652103017e-09
5.010402716e-09
4.267750635e-09
3.414709746e-09
2.443980757e-09
1.351934162e-09
1.404999798e-10
-1.180661573e-09
-2.591984835e-09
-4.062490883e-09
9.623939113e-09
9.623205899e-09
9.621384232e-09
9.618463193e-09
9.614575597e-09
9.60980003e-09
9.604160197e-09
9.597680295e-09
9.590401985e-09
9.582372185e-09
9.573631675e-09
9.564211642e-09
9.554132304e-09
9.543399215e-09
9.53199782e-09
9.519887418e-09
9.506994661e-09
9.49320598e-09
9.478358424e-09
9.462228672e-09
9.444520145e-09
9.424847934e-09
9.402720924e-09
9.377520269e-09
9.348473336e-09
9.314622325e-09
9.274786698e-09
9.227518365e-09
9.171048192e-09
9.103222037e-09
9.021424369e-09
8.922488131e-09
8.802590145e-09
8.657131754e-09
8.480605004e-09
8.266446758e-09
8.006886915e-09
7.692802733e-09
7.313599288e-09
6.857149156e-09
6.30984117e-09
5.656810839e-09
4.882453742e-09
3.971354386e-09
2.909772725e-09
1.687814472e-09
3.02278705e-10
-1.239882929e-09
-2.917823771e-09
-4.692945884e-09
9.712775781e-09
9.712416175e-09
9.711522305e-09
9.710096503e-09
9.708221926e-09
9.705960899e-09
9.703352398e-09
9.700439397e-09
9.697277251e-09
9.693926895e-09
9.690448112e-09
9.686896633e-09
9.683321995e-09
9.67976409e-09
9.676248541e-09
9.672781579e-09
9.669344236e-09
9.665885285e-09
9.662312616e-09
9.658482919e-09
9.65418947e-09
9.64914751e-09
9.642976423e-09
9.635177835e-09
9.625108778e-09
9.611948917e-09
9.594660467e-09
9.571939053e-09
9.542153442e-09
9.50327161e-09
9.452770053e-09
9.387523157e-09
9.303669636e-09
9.196452847e-09
9.060031473e-09
8.88725804e-09
8.669426287e-09
8.395994215e-09
8.054298684e-09
7.629291642e-09
7.103348779e-09
6.456238531e-09
5.665389695e-09
4.706686652e-09
3.556105704e-09
2.192694401e-09
6.031713158e-10
-1.211601748e-09
-3.229931547e-09
-5.403193511e-09
9.802377189e-09
9.802378064e-09
9.802379066e-09
9.802396282e-09
9.802466622e-09
9.802638868e-09
9.802969267e-09
9.80352192e-09
9.804369001e-09
9.805589237e-09
9.807265598e-09
9.809482987e-09
9.812325532e-09
9.815873536e-09
9.820199941e-09
9.825366251e-09
9.831417576e-09
9.838376442e-09
9.846235219e-09
9.854947076e-09
9.86441509e-09
9.87447881e-09
9.884897461e-09
9.895328942e-09
9.90530375e-09
9.91419264e-09
9.92116628e-09
9.925144481e-09
9.924732141e-09
9.918138619e-09
9.903076498e-09
9.876634606e-09
9.835119054e-09
9.773854856e-09
9.686939316e-09
9.566937567e-09
9.404511893e-09
9.187979958e-09
8.902804121e-09
8.531027915e-09
8.050703005e-09
7.435386826e-09
6.653848409e-09
5.670232115e-09
4.445008286e-09
2.937762794e-09
1.112454564e-09
-1.050041746e-09
-3.536193625e-09
-6.27398495e-09
9.891985638e-09
9.892331615e-09
9.893189309e-09
9.894588816e-09
9.896524119e-09
9.899032786e-09
9.902189719e-09
9.906081815e-09
9.910800441e-09
9.916444968e-09
9.923124768e-09
9.930957415e-09
9.940065772e-09
9.950575449e-09
9.962612502e-09
9.976300502e-09
9.99175663e-09
1.000908674e-08
1.00283794e-08
1.004969861e-08
1.007307491e-08
1.009849385e-08
1.01258815e-08
1.015508581e-08
1.018585312e-08
1.021779839e-08
1.025036723e-08
1.028278707e-08
1.031400385e-08
1.034260016e-08
1.036668975e-08
1.038378182e-08
1.039060549e-08
1.038288197e-08
1.035502912e-08
1.029977924e-08
1.020768734e-08
1.006650373e-08
9.860385285e-09
9.568926536e-09
9.166023772e-09
8.618631456e-09
7.885607037e-09
6.916859993e-09
5.653266002e-09
4.027930039e-09
1.967565041e-09
-5.936753534e-10
-3.708353729e-09
-7.30469689e-09
9.980875031e-09
9.981548141e-09
9.983218226e-09
9.985929287e-09
9.989635645e-09
9.994365599e-09
1.000021346e-08
1.000728985e-08
1.001570696e-08
1.002558667e-08
1.003706688e-08
1.005030021e-08
1.006545109e-08
1.008269389e-08
1.010221185e-08
1.012419536e-08
1.014883941e-08
1.017634022e-08
1.020689136e-08
1.024067878e-08
1.027787438e-08
1.031862737e-08
1.036305305e-08
1.041121827e-08
1.046312245e-08
1.051867269e-08
1.057765121e-08
1.063967239e-08
1.07041257e-08
1.077009985e-08
1.08362823e-08
1.090082614e-08
1.096117239e-08
1.10138113e-08
1.105396078e-08
1.107513257e-08
1.106854518e-08
1.102232759e-08
1.092043987e-08
1.074121447e-08
1.045542781e-08
1.002379592e-08
9.394103748e-09
8.497994696e-09
7.24991391e-09
5.546369346e-09
3.274139812e-09
3.187972791e-10
-3.475232419e-09
-8.112136496e-09
1.006835644e-08
1.006933598e-08
1.007176742e-08
1.00757082e-08
1.008107621e-08
1.008789211e-08
1.009626974e-08
1.010634369e-08
1.011824764e-08
1.013212704e-08
1.01481492e-08
1.016650298e-08
1.018739576e-08
1.021105235e-08
1.023771513e-08
1.026764368e-08
1.030111373e-08
1.033841581e-08
1.037985358e-08
1.042574164e-08
1.047640206e-08
1.05321595e-08
1.059333427e-08
1.066023298e-08
1.073313597e-08
1.081227979e-08
1.08978332e-08
1.098986403e-08
1.10882939e-08
1.119283643e-08
1.13029125e-08
1.141753391e-08
1.153514296e-08
1.165338959e-08
1.176882102e-08
1.187644693e-08
1.196912519e-08
1.203668467e-08
1.206466017e-08
1.203244042e-08
1.19105471e-08
1.165651584e-08
1.12090209e-08
1.047843529e-08
9.337947035e-09
7.603808558e-09
5.063961331e-09
1.437813123e-09
-3.436393796e-09
-9.560750923e-09
1.015378431e-08
1.015504674e-08
1.015818137e-08
1.016325823e-08
1.01701621e-08
1.017890731e-08
1.01896268e-08
1.020247857e-08
1.021761766e-08
1.023521308e-08
1.025546145e-08
1.027858763e-08
1.030484169e-08
1.033449864e-08
1.036785959e-08
1.040525297e-08
1.044703518e-08
1.049359126e-08
1.054533577e-08
1.060271334e-08
1.066619881e-08
1.073629655e-08
1.081353866e-08
1.089848175e-08
1.099170182e-08
1.109378627e-08
1.120532115e-08
1.132687173e-08
1.145895397e-08
1.160199374e-08
1.175626799e-08
1.192181959e-08
1.209833464e-08
1.228496564e-08
1.24800764e-08
1.268087192e-08
1.288285635e-08
1.307902979e-08
1.325868212e-08
1.340554153e-08
1.349487915e-08
1.34887377e-08
1.332813854e-08
1.291808988e-08
1.210511224e-08
1.061373334e-08
8.020095535e-09
3.400911077e-09
-3.936853976e-09
-1.576269135e-08
1.023656283e-08
1.023808174e-08
1.024185407e-08
1.024796135e-08
1.025625863e-08
1.02667551e-08
1.027960168e-08
1.029497853e-08
1.031306113e-08
1.033404097e-08
1.035814277e-08
1.038562576e-08
1.041678082e-08
1.045193074e-08
1.049143265e-08
1.053568069e-08
1.058510849e-08
1.064019193e-08
1.070145234e-08
1.076946005e-08
1.084483811e-08
1.092826611e-08
1.102048394e-08
1.112229525e-08
1.123457062e-08
1.135824972e-08
1.149434166e-08
1.164392189e-08
1.18081243e-08
1.19881262e-08
1.218512243e-08
1.24002822e-08
1.263468037e-08
1.288919095e-08
1.316432393e-08
1.345997615e-08
1.377505118e-08
1.410687744e-08
1.445031265e-08
1.479634604e-08
1.512988298e-08
1.542608578e-08
1.564426087e-08
1.571611439e-08
1.55252727e-08
1.484788651e-08
1.327295766e-08
9.633174034e-09
2.185839089e-09
-1.939924871e-08
1.03161522e-08
1.031789833e-08
1.032223569e-08
1.0329256e-08
1.033878816e-08
1.035083711e-08
1.036557022e-08
1.038318774e-08
1.040388385e-08
1.042787064e-08
1.045539853e-08
1.048675819e-08
1.052227767e-08
1.056232325e-08
1.060730298e-08
1.065767089e-08
1.071393106e-08
1.077664229e-08
1.084642362e-08
1.092396066e-08
1.101001273e-08
1.110542091e-08
1.121111719e-08
1.132813491e-08
1.14576201e-08
1.160084388e-08
1.17592158e-08
1.19342979e-08
1.212781854e-08
1.23416851e-08
1.257799347e-08