/*--------------------------------*- C++ -*----------------------------------*\
| =========                 |                                                 |
| \\      /  F ield         | foam-extend: Open Source CFD                    |
|  \\    /   O peration     | Version:     4.1                                |
|   \\  /    A nd           | Web:         http://www.foam-extend.org         |
|    \\/     M anipulation  |                                                 |
\*---------------------------------------------------------------------------*/
FoamFile
{
    version     2.0;
    format      ascii;
    class       surfaceScalarField;
    location    "170000";
    object      phi;
}
// * * * * * * * * * * * * * * * * * * * * * * * * * * * * * * * * * * * * * //

dimensions      [0 3 -1 0 0 0 0];

internalField   nonuniform List<scalar> 
31542
(
1.062542136e-07
3.075786371e-09
1.006215167e-07
5.632697274e-09
9.4116202e-08
6.505314896e-09
8.732955034e-08
6.786651663e-09
8.054184281e-08
6.787707458e-09
7.401141154e-08
6.530431154e-09
6.791145772e-08
6.099953705e-09
6.233640132e-08
5.575056261e-09
5.733121872e-08
5.005182445e-09
5.290608294e-08
4.425135607e-09
4.904664945e-08
3.859433358e-09
4.572048024e-08
3.326169149e-09
4.288317509e-08
2.837305216e-09
4.048416439e-08
2.399010863e-09
3.847101186e-08
2.013152773e-09
3.679231625e-08
1.678695847e-09
3.539961901e-08
1.392697394e-09
3.424857481e-08
1.151044228e-09
3.32995499e-08
9.490247943e-10
3.251780433e-08
7.817453202e-10
3.187339392e-08
6.444100322e-10
3.134089199e-08
5.325014609e-10
3.089900383e-08
4.418876294e-10
3.05301117e-08
3.688915447e-10
3.021978137e-08
3.10329724e-10
2.995630038e-08
2.634803967e-10
2.973024662e-08
2.260532026e-10
2.953409049e-08
1.961556467e-10
2.936183823e-08
1.722518662e-10
2.920872042e-08
1.531175032e-10
2.907092553e-08
1.377946488e-10
2.894537642e-08
1.255489104e-10
2.882954647e-08
1.158297426e-10
2.872131143e-08
1.082347983e-10
2.861883239e-08
1.024787634e-10
2.85204652e-08
9.836691271e-11
2.842469176e-08
9.577319654e-11
2.833006971e-08
9.462184192e-11
2.82351984e-08
9.487113077e-11
2.813869901e-08
9.649918041e-11
2.803920594e-08
9.949277331e-11
2.79353658e-08
1.038397116e-10
2.782584161e-08
1.095236847e-10
2.770932089e-08
1.165202125e-10
2.758452754e-08
1.247929923e-10
2.745023661e-08
1.342907995e-10
2.730529137e-08
1.449453657e-10
2.714862108e-08
1.566706012e-10
2.697925862e-08
1.693628213e-10
1.829016333e-10
2.679635726e-08
1.113830518e-07
1.022734464e-09
1.139960651e-07
3.019684158e-09
1.16087751e-07
4.413629313e-09
1.17468073e-07
5.406330004e-09
1.18095408e-07
6.160372797e-09
1.179642411e-07
6.661598341e-09
1.171669682e-07
6.89722713e-09
1.158308218e-07
6.911203364e-09
1.140813071e-07
6.754698105e-09
1.120355959e-07
6.470847998e-09
1.097979326e-07
6.097097968e-09
1.074565253e-07
5.667577671e-09
1.050825217e-07
5.211309907e-09
1.027312182e-07
4.750315419e-09
1.004436395e-07
4.300732364e-09
9.824862507e-08
3.873711067e-09
9.616498563e-08
3.476337662e-09
9.420357461e-08
3.112456096e-09
9.236917403e-08
2.783426249e-09
9.066210814e-08
2.488812116e-09
8.907955439e-08
2.226964727e-09
8.761656751e-08
1.995489315e-09
8.626690106e-08
1.791555038e-09
8.502362648e-08
1.612167024e-09
8.387947665e-08
1.454480341e-09
8.282715001e-08
1.315807701e-09
8.185950228e-08
1.193701545e-09
8.096966822e-08
1.085990387e-09
8.015113206e-08
9.907888648e-10
7.939775865e-08
9.064919588e-10
7.870379633e-08
8.317581533e-10
7.806386108e-08
7.654853275e-10
7.747290904e-08
7.067827498e-10
7.692620267e-08
6.549418298e-10
7.641927437e-08
6.094074182e-10
7.594789067e-08
5.697507555e-10
7.550801937e-08
5.3564458e-10
7.50958009e-08
5.06840436e-10
7.470752413e-08
4.831480667e-10
7.433960637e-08
4.644171002e-10
7.398857775e-08
4.505215072e-10
7.365107055e-08
4.413469599e-10
7.332381378e-08
4.36780559e-10
7.300363213e-08
4.367021253e-10
7.268744911e-08
4.409765353e-10
7.237229359e-08
4.494470584e-10
7.205530951e-08
4.619302465e-10
7.173376784e-08
4.782129104e-10
7.140508139e-08
4.980496267e-10
5.211619411e-10
7.106682115e-08
1.096495597e-07
7.031749114e-10
1.107414753e-07
1.927768785e-09
1.122106252e-07
2.944479579e-09
1.138772401e-07
3.739715199e-09
1.156518704e-07
4.385742626e-09
1.17406466e-07
4.907002714e-09
1.190153344e-07
5.288358811e-09
1.203973167e-07
5.52922103e-09
1.215072045e-07
5.644810271e-09
1.223259377e-07
5.652114862e-09
1.228555811e-07
5.567454698e-09
1.231147446e-07
5.408414408e-09
1.231327326e-07
5.19332226e-09
1.229436913e-07
4.939357017e-09
1.225828988e-07
4.661525122e-09
1.22084289e-07
4.372320999e-09
1.214789647e-07
4.081662044e-09
1.207943942e-07
3.797026545e-09
1.200541261e-07
3.523694201e-09
1.192778541e-07
3.265083883e-09
1.184816943e-07
3.023124168e-09
1.17678579e-07
2.798604313e-09
1.168786525e-07
2.591481133e-09
1.160896658e-07
2.401153406e-09
1.153174516e-07
2.226694099e-09
1.145662662e-07
2.066992717e-09
1.138390962e-07
1.920871212e-09
1.131379148e-07
1.787171395e-09
1.124638901e-07
1.664813271e-09
1.118175518e-07
1.552829998e-09
1.111989242e-07
1.450385453e-09
1.106076303e-07
1.356779098e-09
1.100429709e-07
1.27144186e-09
1.095039865e-07
1.193926033e-09
1.089895023e-07
1.123891464e-09
1.084981631e-07
1.061089682e-09
1.080284603e-07
1.005347152e-09
1.075787519e-07
9.565484782e-10
1.071472795e-07
9.146200076e-10
1.067321818e-07
8.795142734e-10
1.06331507e-07
8.511957352e-10
1.059432254e-07
8.296280871e-10
1.055652426e-07
8.147631093e-10
1.051954137e-07
8.065309156e-10
1.048315589e-07
8.048314571e-10
1.044714798e-07
8.095265362e-10
1.041129773e-07
8.20433207e-10
1.037538684e-07
8.373222494e-10
1.033920053e-07
8.59913074e-10
8.878725045e-10
1.03025295e-07
1.095677074e-07
4.654678119e-10
1.100996641e-07
1.395812683e-09
1.10827774e-07
2.216370173e-09
1.116790807e-07
2.888408957e-09
1.126408787e-07
3.423945136e-09
1.137032871e-07
3.844594952e-09
1.148338057e-07
4.157840831e-09
1.159934361e-07
4.369591241e-09
1.171462069e-07
4.49204002e-09
1.182594047e-07
4.538917389e-09
1.193047214e-07
4.522138358e-09
1.202606128e-07
4.452523325e-09
1.211132644e-07
4.340670961e-09
1.21855909e-07
4.196712908e-09
1.224876764e-07
4.029758286e-09
1.230122979e-07
3.84770008e-09
1.234367639e-07
3.657196611e-09
1.23770099e-07
3.463692102e-09
1.240223333e-07
3.271460552e-09
1.242037183e-07
3.0836996e-09
1.243241752e-07
2.902667816e-09
1.24392939e-07
2.72984107e-09
1.244183512e-07
2.566069275e-09
1.244077804e-07
2.411724439e-09
1.243676383e-07
2.266836475e-09
1.243034243e-07
2.131206892e-09
1.242197979e-07
2.004497811e-09
1.241206661e-07
1.886303367e-09
1.240092751e-07
1.776204514e-09
1.238882974e-07
1.673807984e-09
1.237599112e-07
1.578771749e-09
1.236258706e-07
1.490819781e-09
1.23487564e-07
1.409748405e-09
1.233460638e-07
1.335426252e-09
1.232021658e-07
1.267789443e-09
1.23056422e-07
1.206833399e-09
1.229091668e-07
1.15260236e-09
1.227605377e-07
1.105177499e-09
1.226104933e-07
1.064664243e-09
1.224588282e-07
1.031179221e-09
1.223051863e-07
1.004837517e-09
1.221490739e-07
9.85740526e-10
1.219898726e-07
9.739645577e-10
1.218268533e-07
9.69550507e-10
1.216591903e-07
9.72494663e-10
1.214859767e-07
9.827404705e-10
1.213062384e-07
1.000171784e-09
1.21118953e-07
1.024607931e-09
1.209230669e-07
1.055799436e-09
1.093425788e-09
1.207175139e-07
1.094428794e-07
3.525886621e-10
1.097733651e-07
1.065327494e-09
1.102717167e-07
1.718019029e-09
1.108845441e-07
2.275581851e-09
1.115745853e-07
2.733904344e-09
1.123185016e-07
3.100678977e-09
1.130951633e-07
3.381179438e-09
1.138856739e-07
3.579080971e-09
1.146762417e-07
3.701472455e-09
1.154567796e-07
3.75837963e-09
1.16218802e-07
3.760116117e-09
1.169550031e-07
3.716322306e-09
1.176595789e-07
3.636095237e-09
1.183283744e-07
3.527917623e-09
1.189587818e-07
3.399351026e-09
1.195496047e-07
3.256877532e-09
1.201008863e-07
3.105915258e-09
1.2061369e-07
2.950888735e-09
1.210898451e-07
2.795305765e-09
1.21531697e-07
2.641847957e-09
1.21941885e-07
2.492480055e-09
1.223231581e-07
2.348568175e-09
1.22678232e-07
2.210995486e-09
1.230096867e-07
2.080269815e-09
1.233199012e-07
1.956621938e-09
1.236110176e-07
1.840090456e-09
1.238849247e-07
1.730590596e-09
1.241432595e-07
1.627968383e-09
1.243874195e-07
1.532044301e-09
1.24618581e-07
1.442646336e-09
1.248377199e-07
1.359632792e-09
1.250456328e-07
1.282906743e-09
1.252429575e-07
1.212423674e-09
1.2543019e-07
1.148193774e-09
1.256076996e-07
1.090279756e-09
1.257757417e-07
1.038791164e-09
1.259344671e-07
9.938767047e-10
1.260839296e-07
9.557146536e-10
1.262240919e-07
9.245016245e-10
1.263548304e-07
9.004406057e-10
1.264759392e-07
8.83728701e-10
1.26587135e-07
8.745448549e-10
1.266880617e-07
8.730379768e-10
1.267782966e-07
8.793158357e-10
1.268573568e-07
8.934346923e-10
1.269247077e-07
9.153897461e-10
1.269797728e-07
9.451068621e-10
1.270219451e-07
9.824359307e-10
1.270505992e-07
1.027145697e-09
1.078920442e-09
1.270651048e-07
1.094077289e-07
2.748601395e-10
1.096458535e-07
8.272034189e-10
1.100192364e-07
1.344636683e-09
1.104923612e-07
1.802457591e-09
1.110353389e-07
2.190927204e-09
1.116261124e-07
2.509905981e-09
1.122461166e-07
2.761175535e-09
1.12878558e-07
2.946639804e-09
1.135098709e-07
3.070159679e-09
1.141302832e-07
3.137967324e-09
1.147330342e-07
3.157365206e-09
1.153136447e-07
3.135711942e-09
1.158695669e-07
3.080173177e-09
1.163998613e-07
2.997623498e-09
1.169047852e-07
2.894427553e-09
1.173854217e-07
2.776241403e-09
1.17843404e-07
2.647933433e-09
1.18280705e-07
2.513588125e-09
1.186994677e-07
2.376543497e-09
1.191018678e-07
2.239448126e-09
1.194900106e-07
2.104337397e-09
1.198658568e-07
1.972722154e-09
1.202311723e-07
1.845680121e-09
1.205874988e-07
1.723943516e-09
1.209361412e-07
1.60797965e-09
1.212781698e-07
1.498061977e-09
1.216144304e-07
1.394330083e-09
1.219455596e-07
1.296839105e-09
1.222720041e-07
1.205599624e-09
1.225940414e-07
1.120608745e-09
1.229118011e-07
1.041873019e-09
1.23225284e-07
9.694237486e-10
1.235343813e-07
9.033264872e-10
1.238388892e-07
8.436860335e-10
1.241385224e-07
7.906466903e-10
1.244329254e-07
7.443880763e-10
1.24721681e-07
7.051209673e-10
1.250043162e-07
6.73079275e-10
1.252803078e-07
6.4850992e-10
1.255490862e-07
6.316621778e-10
1.25810039e-07
6.227760277e-10
1.260625145e-07
6.220695936e-10
1.263058259e-07
6.297266831e-10
1.265392566e-07
6.4588522e-10
1.267620652e-07
6.706261033e-10
1.269734924e-07
7.039625002e-10
1.271727693e-07
7.458300393e-10
1.273591268e-07
7.960785494e-10
1.275318074e-07
8.544653628e-10
9.206507646e-10
1.276900771e-07
1.093888823e-07
2.159780625e-10
1.095657647e-07
6.503212999e-10
1.098477691e-07
1.062632677e-09
1.10214622e-07
1.435605051e-09
1.106463534e-07
1.75919618e-09
1.111261239e-07
2.030135936e-09
1.116391058e-07
2.2481939e-09
1.121714931e-07
2.414252593e-09
1.127111262e-07
2.530526576e-09
1.132482476e-07
2.600845917e-09
1.137754932e-07
2.630119484e-09
1.142875554e-07
2.62364978e-09
1.147809341e-07
2.586794541e-09
1.15253732e-07
2.524825783e-09
1.157053848e-07
2.442774943e-09
1.161363568e-07
2.345269669e-09
1.165478595e-07
2.236430918e-09
1.169416116e-07
2.119836306e-09
1.17319634e-07
1.998521241e-09
1.176840811e-07
1.87500098e-09
1.180371084e-07
1.751310111e-09
1.183807745e-07
1.629056065e-09
1.187169744e-07
1.509480267e-09
1.19047397e-07
1.393520928e-09
1.19373503e-07
1.281873779e-09
1.196965171e-07
1.175047971e-09
1.200174316e-07
1.073415653e-09
1.203370158e-07
9.772547543e-10
1.206558315e-07
8.867837472e-10
1.209742494e-07
8.021906781e-10
1.212924669e-07
7.236554633e-10
1.216105261e-07
6.513645934e-10
1.219283301e-07
5.855226094e-10
1.222456582e-07
5.263580733e-10
1.225621787e-07
4.741262157e-10
1.22877461e-07
4.291057263e-10
1.231909841e-07
3.915976839e-10
1.235021452e-07
3.619180501e-10
1.238102668e-07
3.40388402e-10
1.241146027e-07
3.27326324e-10
1.244143446e-07
3.230343645e-10
1.247086284e-07
3.277860109e-10
1.249965425e-07
3.41812662e-10
1.252771346e-07
3.652930121e-10
1.255494208e-07
3.983398811e-10
1.258123958e-07
4.409873917e-10
1.260650456e-07
4.931802418e-10
1.263063596e-07
5.547646556e-10
1.265353452e-07
6.254799036e-10
7.049529868e-10
1.26751043e-07
1.093751217e-07
1.70856581e-10
1.095109843e-07
5.144589498e-10
1.097306329e-07
8.429842873e-10
1.100221256e-07
1.144112641e-09
1.103717871e-07
1.409535011e-09
1.107666397e-07
1.635283619e-09
1.11194836e-07
1.819997702e-09
1.116454601e-07
1.963628635e-09
1.12108737e-07
2.067249643e-09
1.125764387e-07
2.13314419e-09
1.130419992e-07
2.164558967e-09
1.135003786e-07
2.165270481e-09
1.139479052e-07
2.139268017e-09
1.143821498e-07
2.09058133e-09
1.148017762e-07
2.023148778e-09
1.152063556e-07
1.940690418e-09
1.155961746e-07
1.846612104e-09
1.159720569e-07
1.74395407e-09
1.163352052e-07
1.635372806e-09
1.166870627e-07
1.523143378e-09
1.170291957e-07
1.409177073e-09
1.173631998e-07
1.295051907e-09
1.176906282e-07
1.182051925e-09
1.180129386e-07
1.071210719e-09
1.183314567e-07
9.633558774e-10
1.186473538e-07
8.591509289e-10
1.189616343e-07
7.591351838e-10
1.192751293e-07
6.637595946e-10
1.195885002e-07
5.734127491e-10
1.199022426e-07
4.884481412e-10
1.202166934e-07
4.092047279e-10
1.205320398e-07
3.36018228e-10
1.208483243e-07
2.692383039e-10
1.211654512e-07
2.092313245e-10
1.214832077e-07
1.563696784e-10
1.218012589e-07
1.110544958e-10
1.221191546e-07
7.370191089e-11
1.224363379e-07
4.473472405e-11
1.227521507e-07
2.457567853e-11
1.230658386e-07
1.363853638e-11
1.233765531e-07
1.232006783e-11
1.236833604e-07
2.097878403e-11
1.23985256e-07
3.991710954e-11
1.2428117e-07
6.937898418e-11
1.245699771e-07
1.095326825e-10
1.248505104e-07
1.604541795e-10
1.251215751e-07
2.221155674e-10
1.253819661e-07
2.943737238e-10
1.256304909e-07
3.769551675e-10
4.694604247e-10
1.258659834e-07
1.093658538e-07
1.350028186e-10
1.094739419e-07
4.063710482e-10
1.096499945e-07
6.669318484e-10
1.098863429e-07
9.0776451e-10
1.101735266e-07
1.122351507e-09
1.105019057e-07
1.306904782e-09
1.108623516e-07
1.459551803e-09
1.112463523e-07
1.579627991e-09
1.116461345e-07
1.667467385e-09
1.120549041e-07
1.724374588e-09
1.124669997e-07
1.752463319e-09
1.128778898e-07
1.754380481e-09
1.132840973e-07
1.733060614e-09
1.136831162e-07
1.691562573e-09
1.140733139e-07
1.632951262e-09
1.144538101e-07
1.560194309e-09
1.148243441e-07
1.476078126e-09
1.151851452e-07
1.383152825e-09
1.155368142e-07
1.283703662e-09
1.158802159e-07
1.179741529e-09
1.162163856e-07
1.073007246e-09
1.165464501e-07
9.649873833e-10
1.168715637e-07
8.569384401e-10
1.171928575e-07
7.499171767e-10
1.175113996e-07
6.448139894e-10
1.178281692e-07
5.423814128e-10
1.181440395e-07
4.432648741e-10
1.184597627e-07
3.480363515e-10
1.187759612e-07
2.572140782e-10
1.190931208e-07
1.712884599e-10
1.194116029e-07
9.072256466e-11
1.197316416e-07
1.597948771e-11
1.200533395e-07
-5.245957449e-11
1.20376644e-07
-1.140731236e-10
1.207014059e-07
-1.683922248e-10
1.210273349e-07
-2.148745517e-10
1.213540187e-07
-2.529818488e-10
1.216809219e-07
-2.821684195e-10
1.220073864e-07
-3.01888763e-10
1.223326352e-07
-3.116101478e-10
1.226557807e-07
-3.108252291e-10
1.229758276e-07
-2.990680673e-10
1.232916753e-07
-2.759305029e-10
1.23602131e-07
-2.41076588e-10
1.239059238e-07
-1.942599878e-10
1.2420172e-07
-1.353416396e-10
1.244881404e-07
-6.430453328e-11
1.247637712e-07
1.874300766e-11
1.25027218e-07
1.135082881e-10
2.195944842e-10
1.252770838e-07
1.093592372e-07
1.057656401e-10
1.094472949e-07
3.183134442e-10
1.095913524e-07
5.228745291e-10
1.097862852e-07
7.128319263e-10
1.100255331e-07
8.831037821e-10
1.103020529e-07
1.030385153e-09
1.106088749e-07
1.152729824e-09
1.109393231e-07
1.24917978e-09
1.112871678e-07
1.319622623e-09
1.116468124e-07
1.364730052e-09
1.120134397e-07
1.38583607e-09
1.123830628e-07
1.384757399e-09
1.127525056e-07
1.363618011e-09
1.131193548e-07
1.324713471e-09
1.134818986e-07
1.270407614e-09
1.138390469e-07
1.203046071e-09
1.141902402e-07
1.124884921e-09
1.145353546e-07
1.038038329e-09
1.148746123e-07
9.444458527e-10
1.152084973e-07
8.458565149e-10
1.1553768e-07
7.43824535e-10
1.158629512e-07
6.397163365e-10
1.161851667e-07
5.347230716e-10
1.165052054e-07
4.298786999e-10
1.168239308e-07
3.260886685e-10
1.171421532e-07
2.241591898e-10
1.174606117e-07
1.248062881e-10
1.177799804e-07
2.866764365e-11
1.181008435e-07
-6.364922408e-11
1.184236439e-07
-1.515121555e-10
1.187487464e-07
-2.343801026e-10
1.190763776e-07
-3.116519423e-10
1.194066456e-07
-3.827276589e-10
1.1973956e-07
-4.469876232e-10
1.200749707e-07
-5.03802972e-10
1.204126106e-07
-5.52514405e-10
1.20752075e-07
-5.924461033e-10
1.210928209e-07
-6.229142814e-10
1.214341673e-07
-6.432350399e-10
1.217752935e-07
-6.52736279e-10
1.221152413e-07
-6.507730236e-10
1.224529182e-07
-6.367448356e-10
1.227871026e-07
-6.101145705e-10
1.231164541e-07
-5.704276229e-10
1.234395263e-07
-5.17331791e-10
1.237547825e-07
-4.505972878e-10
1.240606144e-07
-3.701361119e-10
1.243553769e-07
-2.760191595e-10
1.246373838e-07
-1.684986163e-10
-4.800311813e-11
1.249049813e-07
1.093542949e-07
8.147079264e-11
1.094274339e-07
2.451745431e-10
1.095474857e-07
4.028229437e-10
1.097109159e-07
5.494018754e-10
1.099130766e-07
6.809432509e-10
1.101487774e-07
7.946844602e-10
1.104126904e-07
8.888168598e-10
1.106995826e-07
9.622874917e-10
1.110044799e-07
1.014725318e-09
1.113228197e-07
1.046390237e-09
1.116505716e-07
1.058084224e-09
1.11984301e-07
1.051028175e-09
1.123211814e-07
1.026737721e-09
1.126589779e-07
9.869171692e-10
1.129960124e-07
9.333733129e-10
1.133311152e-07
8.679433559e-10
1.136635642e-07
7.924360291e-10
1.139930183e-07
7.08584353e-10
1.143194511e-07
6.180131077e-10
1.146430856e-07
5.222221266e-10
1.14964338e-07
4.22572345e-10
1.152837639e-07
3.202905713e-10
1.156019995e-07
2.164876628e-10
1.159197269e-07
1.12151421e-10
1.162376793e-07
8.136350041e-12
1.165565513e-07
-9.471282094e-11
1.168769855e-07
-1.956280385e-10
1.171996016e-07
-2.939486571e-10
1.175249165e-07
-3.889644001e-10
1.178534036e-07
-4.799995545e-10
1.181854115e-07
-5.663884461e-10
1.18521197e-07
-6.474377521e-10
1.188609018e-07
-7.224327435e-10
1.19204549e-07
-7.906349301e-10
1.195520222e-07
-8.512760815e-10
1.199030686e-07
-9.035606762e-10
1.202572902e-07
-9.466675302e-10
1.206141343e-07
-9.797582477e-10
1.209728881e-07
-1.001988833e-09
1.213326754e-07
-1.012523608e-09
1.216924547e-07
-1.010552295e-09
1.220510201e-07
-9.953100015e-10
1.224070054e-07
-9.660994022e-10
1.227588929e-07
-9.223143739e-10
1.231050264e-07
-8.634645721e-10
1.234436299e-07
-7.892002815e-10
1.237728307e-07
-6.993366004e-10
1.24090687e-07
-5.938752254e-10
1.243952131e-07
-4.730245408e-10
-3.372145889e-10
1.246844247e-07
1.093505189e-07
6.095197397e-11
1.094122753e-07
1.834184609e-10
1.095139038e-07
3.011945838e-10
1.096528896e-07
4.104163209e-10
1.098258647e-07
5.079682494e-10
1.100289687e-07
5.91580393e-10
1.102581307e-07
6.596548291e-10
1.105092627e-07
7.111554782e-10
1.107784067e-07
7.455812092e-10
1.110618614e-07
7.629355459e-10
1.113562828e-07
7.636629813e-10
1.11658749e-07
7.485620838e-10
1.119667902e-07
7.186967438e-10
1.122783915e-07
6.753161098e-10
1.125919787e-07
6.197862813e-10
1.129063913e-07
5.535309771e-10
1.132208414e-07
4.779862266e-10
1.135348727e-07
3.945533131e-10
1.138483141e-07
3.045719116e-10
1.14161215e-07
2.093215123e-10
1.144738159e-07
1.099716704e-10
1.147865306e-07
7.576006174e-12
1.150998491e-07
-9.683081524e-11
1.154143209e-07
-2.02320342e-10
1.157305515e-07
-3.08094287e-10
1.160491555e-07
-4.133169295e-10
1.163707578e-07
-5.172304805e-10
1.166959203e-07
-6.191114396e-10
1.170251798e-07
-7.182243571e-10
1.173590058e-07
-8.138260388e-10
1.176977763e-07
-9.051593935e-10
1.180417805e-07
-9.91442457e-10
1.183912033e-07
-1.071855745e-09
1.187461069e-07
-1.145538545e-09
1.191064187e-07
-1.211587723e-09
1.194719177e-07
-1.269059363e-09
1.198422219e-07
-1.316971593e-09
1.202167769e-07
-1.354313213e-09
1.205948445e-07
-1.380056578e-09
1.209754945e-07
-1.393173664e-09
1.213575983e-07
-1.392656056e-09
1.217398272e-07
-1.377538609e-09
1.221206542e-07
-1.346925977e-09
1.22498362e-07
-1.300021417e-09
1.228710552e-07
-1.236157085e-09
1.232366803e-07
-1.15482489e-09
1.235930509e-07
-1.055706883e-09
1.239378797e-07
-9.38703798e-10
1.24268816e-07
-8.039606258e-10
-6.518883077e-10
1.245834899e-07
1.093475677e-07
4.338444339e-11
1.094004336e-07
1.305527809e-10
1.094876095e-07
2.140189474e-10
1.096072639e-07
2.90762085e-10
1.097569148e-07
3.583173444e-10
1.099336642e-07
4.148309529e-10
1.101343907e-07
4.589282312e-10
1.103558972e-07
4.896488536e-10
1.105950336e-07
5.064447383e-10
1.108488025e-07
5.091667186e-10
1.111144455e-07
4.98020209e-10
1.113895033e-07
4.735044398e-10
1.116718509e-07
4.363493549e-10
1.119597133e-07
3.874539784e-10
1.122516649e-07
3.278349369e-10
1.125466176e-07
2.585785029e-10
1.128437737e-07
1.808304645e-10
1.131426408e-07
9.568654869e-11
1.134429995e-07
4.213626982e-12
1.137447847e-07
-9.246348377e-11
1.140481481e-07
-1.933915488e-10
1.143533695e-07
-2.976453741e-10
1.146608568e-07
-4.043181891e-10
1.14971115e-07
-5.125787228e-10
1.152846696e-07
-6.216490394e-10
1.156021127e-07
-7.307601631e-10
1.159240408e-07
-8.391588112e-10
1.162510229e-07
-9.460939229e-10
1.165836041e-07
-1.050806029e-09
1.169222864e-07
-1.15250882e-09
1.172675052e-07
-1.250378674e-09
1.176196103e-07
-1.343547947e-09
1.179788498e-07
-1.431095317e-09
1.183453514e-07
-1.512040063e-09
1.187191042e-07
-1.585340165e-09
1.190999383e-07
-1.649893217e-09
1.194875074e-07
-1.704540714e-09
1.19881271e-07
-1.748076988e-09
1.202804773e-07
-1.779263141e-09
1.206841491e-07
-1.796845711e-09
1.210910731e-07
-1.799580025e-09
1.214997927e-07
-1.786257995e-09
1.219086071e-07
-1.755739934e-09
1.223155758e-07
-1.706989743e-09
1.227185317e-07
-1.639112582e-09
1.231151011e-07
-1.551393814e-09
1.235027324e-07
-1.443337811e-09
1.238787339e-07
-1.314704831e-09
1.242403176e-07
-1.165544042e-09
-9.962214461e-10
1.245846509e-07
1.093452089e-07
2.817574684e-11
1.093909863e-07
8.477567551e-11
1.094666007e-07
1.384046883e-10
1.095706931e-07
1.866697504e-10
1.097014074e-07
2.276030906e-10
1.098565452e-07
2.596930271e-10
1.100337024e-07
2.817708953e-10
1.102303716e-07
2.929795219e-10
1.104440439e-07
2.927725049e-10
1.106722976e-07
2.809131392e-10
1.1091287e-07
2.574480256e-10
1.111637114e-07
2.226632547e-10
1.114230136e-07
1.770473383e-10
1.116892382e-07
1.21229644e-10
1.119611211e-07
5.595221003e-11
1.12237731e-07
-1.803105644e-11
1.125182514e-07
-9.968965245e-11
1.128022428e-07
-1.88304479e-10
1.130894079e-07
-2.829511874e-10
1.133797065e-07
-3.827619402e-10
1.136732323e-07
-4.869172826e-10
1.139702158e-07
-5.946289303e-10
1.142710286e-07
-7.051312115e-10
1.145761356e-07
-8.176859049e-10
1.148860564e-07
-9.315701517e-10
1.152013661e-07
-1.046070035e-09
1.155226703e-07
-1.160463329e-09
1.158505826e-07
-1.274006611e-09
1.161857027e-07
-1.385926451e-09
1.165285974e-07
-1.495403971e-09
1.168797809e-07
-1.601562583e-09
1.172396923e-07
-1.703459525e-09
1.17608674e-07
-1.800076924e-09
1.179869488e-07
-1.890314666e-09
1.183745959e-07
-1.972987013e-09
1.187715255e-07
-2.046822732e-09
1.191774539e-07
-2.110469304e-09
1.195918788e-07
-2.162502248e-09
1.200140554e-07
-2.201440205e-09
1.204429753e-07
-2.225765894e-09
1.208773482e-07
-2.233952999e-09
1.213155893e-07
-2.224498926e-09
1.217558126e-07
-2.195963076e-09
1.22195833e-07
-2.147009973e-09
1.226331768e-07
-2.076456223e-09
1.230651031e-07
-1.98331981e-09
1.234886355e-07
-1.866869795e-09
1.239006054e-07
-1.726674206e-09
1.242977052e-07
-1.562643468e-09
-1.37506745e-09
1.246765514e-07
1.093432743e-07
1.490165161e-11
1.093832859e-07
4.476439465e-11
1.09449475e-07
7.221570275e-11
1.095408168e-07
9.532799693e-11
1.096559029e-07
1.12516972e-10
1.097930411e-07
1.225546809e-10
1.099503892e-07
1.244226685e-10
1.101259658e-07
1.174029776e-10
1.103177687e-07
1.009696851e-10
1.105238449e-07
7.483716643e-11
1.107423447e-07
3.894851911e-11
1.10971584e-07
-6.575834576e-12
1.112100319e-07
-6.140041077e-11
1.114563895e-07
-1.251277753e-10
1.117095731e-07
-1.9723124e-10
1.119686582e-07
-2.771159029e-10
1.122330842e-07
-3.641153875e-10
1.125023664e-07
-4.57586399e-10
1.127762604e-07
-5.56845068e-10
1.130547096e-07
-6.612110913e-10
1.133378127e-07
-7.700203902e-10
1.136258043e-07
-8.826207072e-10
1.139190452e-07
-9.983722874e-10
1.142179994e-07
-1.116640385e-09
1.145232151e-07
-1.236786106e-09
1.148353038e-07
-1.358158969e-09
1.151549217e-07
-1.480081473e-09
1.1548275e-07
-1.601835252e-09
1.15819473e-07
-1.722649789e-09
1.161657576e-07
-1.841688841e-09
1.165222315e-07
-1.958036686e-09
1.168894587e-07
-2.070686656e-09
1.172679128e-07
-2.178530881e-09
1.176579498e-07
-2.280351543e-09
1.18059778e-07
-2.374815236e-09
1.184734264e-07
-2.460471296e-09
1.188987117e-07
-2.535754959e-09
1.193352054e-07
-2.59899637e-09
1.197822012e-07
-2.648436286e-09
1.202386841e-07
-2.682249046e-09
1.207033041e-07
-2.698573162e-09
1.211743547e-07
-2.695549655e-09
1.216497595e-07
-2.671367935e-09
1.221270681e-07
-2.624318623e-09
1.226034642e-07
-2.552852187e-09
1.230757863e-07
-2.455641515e-09
1.235405628e-07
-2.331645951e-09
1.239940628e-07
-2.180173889e-09
1.244323599e-07
-2.000940419e-09
-1.794116862e-09
1.248514094e-07
1.09341679e-07
3.222869618e-12
1.093769111e-07
9.532581832e-12
1.094352624e-07
1.386459169e-11
1.095159617e-07
1.462864992e-11
1.096179365e-07
1.054217874e-11
1.097397989e-07
6.922259548e-13
1.098802384e-07
-1.601687947e-11
1.100376332e-07
-3.999164587e-11
1.102103912e-07
-7.178812036e-11
1.103969453e-07
-1.117166575e-10
1.105957933e-07
-1.598991791e-10
1.108055217e-07
-2.163039713e-10
1.110248872e-07
-2.807657207e-10
1.11252785e-07
-3.530254498e-10
1.114882912e-07
-4.327373574e-10
1.11730666e-07
-5.194905157e-10
1.119793753e-07
-6.128244249e-10
1.122340421e-07
-7.122530586e-10
1.124944722e-07
-8.17275068e-10
1.127606398e-07
-9.273787256e-10
1.130326715e-07
-1.042052185e-09
1.133108347e-07
-1.160784066e-09
1.135955234e-07
-1.283061098e-09
1.138872429e-07
-1.408360133e-09
1.141865949e-07
-1.536138318e-09
1.144942583e-07
-1.665822585e-09
1.148109727e-07
-1.796796127e-09
1.151375206e-07
-1.928383525e-09
1.15474707e-07
-2.059836415e-09
1.158233366e-07
-2.190318601e-09
1.161841906e-07
-2.318890632e-09
1.165579993e-07
-2.444495274e-09
1.169454127e-07
-2.565944166e-09
1.173469672e-07
-2.681906048e-09
1.177630496e-07
-2.790897867e-09
1.181938581e-07
-2.891280091e-09
1.186393602e-07
-2.981257463e-09
1.190992501e-07
-3.058886493e-09
1.195729045e-07
-3.12209085e-09
1.20059341e-07
-3.168685668e-09
1.205571792e-07
-3.19641159e-09
1.210646084e-07
-3.202979089e-09
1.215793634e-07
-3.186123134e-09
1.220987125e-07
-3.143667719e-09
1.226194594e-07
-3.073599037e-09
1.231379632e-07
-2.974145128e-09
1.236501763e-07
-2.843858869e-09
1.241517028e-07
-2.681700349e-09
1.246378762e-07
-2.487113918e-09
-2.260095024e-09
1.251038541e-07
1.093404293e-07
-7.206208085e-12
1.093716393e-07
-2.16771564e-11
1.094233486e-07
-3.784457039e-11
1.094949667e-07
-5.698935427e-11
1.095856653e-07
-8.015635808e-11
1.096945241e-07
-1.081666252e-10
1.098202569e-07
-1.417494802e-10
1.09961707e-07
-1.814415572e-10
1.101176111e-07
-2.276918644e-10
1.102867022e-07
-2.80807408e-10
1.104677579e-07
-3.409545197e-10
1.106596334e-07
-4.081791763e-10
1.108612957e-07
-4.824278615e-10
1.110718375e-07
-5.635670304e-10
1.112904955e-07
-6.513951881e-10
1.115166619e-07
-7.456568193e-10
1.117498924e-07
-8.460547665e-10
1.11989903e-07
-9.522635314e-10
1.122365685e-07
-1.06394048e-09
1.124899209e-07
-1.180731064e-09
1.127501418e-07
-1.302273175e-09
1.130175544e-07
-1.428196689e-09
1.132926123e-07
-1.558119136e-09
1.135758896e-07
-1.691637615e-09
1.138680688e-07
-1.828317706e-09
1.141699266e-07
-1.967680708e-09
1.144823192e-07
-2.109189024e-09
1.148061652e-07
-2.252229753e-09
1.151424263e-07
-2.39609764e-09
1.154920851e-07
-2.539977438e-09
1.158561201e-07
-2.682925524e-09
1.162354764e-07
-2.823851477e-09
1.166310325e-07
-2.961500296e-09
1.170435623e-07
-3.094436015e-09
1.174736921e-07
-3.221028012e-09
1.179218534e-07
-3.339441602e-09
1.183882304e-07
-3.447634562e-09
1.188727051e-07
-3.543361287e-09
1.193748005e-07
-3.624186258e-09
1.198936232e-07
-3.687508401e-09
1.204278092e-07
-3.730597821e-09
1.209754759e-07
-3.750646109e-09
1.215341834e-07
-3.744830783e-09
1.221009093e-07
-3.710393693e-09
1.226720425e-07
-3.644732186e-09
1.232433979e-07
-3.545500659e-09
1.238102574e-07
-3.410718643e-09
1.243674367e-07
-3.238880097e-09
1.249093799e-07
-3.029057392e-09
-2.780992518e-09
1.254302772e-07
1.093392785e-07
-1.648447077e-11
1.093670128e-07
-4.94111918e-11
1.094129945e-07
-8.382604446e-11
1.09476779e-07
-1.207737892e-10
1.09557731e-07
-1.611082913e-10
1.09655073e-07
-2.055085274e-10
1.097678806e-07
-2.54556798e-10
1.098951878e-07
-3.087484548e-10
1.100359834e-07
-3.684870428e-10
1.101892488e-07
-4.340724114e-10
1.103539965e-07
-5.057017988e-10
1.105293009e-07
-5.834832399e-10
1.10714323e-07
-6.674497405e-10
1.109083282e-07
-7.575719364e-10
1.111107018e-07
-8.537686158e-10
1.11320962e-07
-9.559168365e-10
1.115387686e-07
-1.063861227e-09
1.117639283e-07
-1.17742312e-09
1.119963964e-07
-1.296408438e-09
1.122362775e-07
-1.420612057e-09
1.124838237e-07
-1.549819264e-09
1.127394306e-07
-1.683803576e-09
1.130036322e-07
-1.822320749e-09
1.132770937e-07
-1.965099295e-09
1.135606036e-07
-2.111827899e-09
1.138550633e-07
-2.262140645e-09
1.141614743e-07
-2.415600314e-09
1.144809241e-07
-2.571679769e-09
1.148145683e-07
-2.729741882e-09
1.151636091e-07
-2.889018178e-09
1.155292699e-07
-3.048586197e-09
1.159127644e-07
-3.207346001e-09
1.163152605e-07
-3.363996526e-09
1.16737837e-07
-3.517012789e-09
1.171814341e-07
-3.664625378e-09
1.176467966e-07
-3.804804054e-09
1.181344096e-07
-3.935247525e-09
1.1864443e-07
-4.053381657e-09
1.191766123e-07
-4.156368519e-09
1.197302324e-07
-4.241128638e-09
1.203040133e-07
-4.304378801e-09
1.208960545e-07
-4.342687519e-09
1.215037733e-07
-4.352549688e-09
1.221238604e-07
-4.330480989e-09
1.227522591e-07
-4.273131184e-09
1.233841718e-07
-4.177413798e-09
1.240141001e-07
-4.040647516e-09
1.246359218e-07
-3.860702314e-09
1.252430052e-07
-3.636141149e-09
-3.366346158e-09
1.258283586e-07
1.09338232e-07
-2.471623209e-11
1.093629005e-07
-7.407940268e-11
1.094038349e-07
-1.247602682e-10
1.094606904e-07
-1.77629174e-10
1.095329698e-07
-2.333876169e-10