/*--------------------------------*- C++ -*----------------------------------*\
| =========                 |                                                 |
| \\      /  F ield         | foam-extend: Open Source CFD                    |
|  \\    /   O peration     | Version:     4.1                                |
|   \\  /    A nd           | Web:         http://www.foam-extend.org         |
|    \\/     M anipulation  |                                                 |
\*---------------------------------------------------------------------------*/
FoamFile
{
    version     2.0;
    format      ascii;
    class       volVectorField;
    location    "170000";
    object      U;
}
// * * * * * * * * * * * * * * * * * * * * * * * * * * * * * * * * * * * * * //

dimensions      [0 1 -1 0 0 0 0];

internalField   nonuniform List<vector> 
15920
(
(0.0002132431705 5.118116068e-06 0)
(0.0002058596883 1.130194667e-05 0)
(0.0001957533709 1.371689591e-05 0)
(0.0001822345658 1.419766107e-05 0)
(0.0001678385633 1.374986441e-05 0)
(0.0001542167411 1.268102402e-05 0)
(0.0001416321582 1.117559207e-05 0)
(0.0001300031372 9.45727863e-06 0)
(0.0001194035193 7.723864419e-06 0)
(0.0001099539781 6.101693879e-06 0)
(0.0001016804776 4.658753387e-06 0)
(9.452243427e-05 3.42665138e-06 0)
(8.838778548e-05 2.411730319e-06 0)
(8.31782419e-05 1.601874819e-06 0)
(7.879172728e-05 9.740916819e-07 0)
(7.512419851e-05 5.010626229e-07 0)
(7.207484451e-05 1.55270381e-07 0)
(6.955039283e-05 -8.876546356e-08 0)
(6.746693736e-05 -2.533632063e-07 0)
(6.575034238e-05 -3.572843366e-07 0)
(6.433615723e-05 -4.158365321e-07 0)
(6.316924187e-05 -4.412449538e-07 0)
(6.220311858e-05 -4.431281147e-07 0)
(6.139912352e-05 -4.289437817e-07 0)
(6.072543391e-05 -4.043288019e-07 0)
(6.015610893e-05 -3.734556871e-07 0)
(5.967019458e-05 -3.393564805e-07 0)
(5.925089767e-05 -3.041828591e-07 0)
(5.888483351e-05 -2.694082872e-07 0)
(5.856135798e-05 -2.359856484e-07 0)
(5.827199029e-05 -2.044715043e-07 0)
(5.800992468e-05 -1.751252983e-07 0)
(5.776962501e-05 -1.479892471e-07 0)
(5.754649458e-05 -1.229528502e-07 0)
(5.733661265e-05 -9.980470514e-08 0)
(5.71365287e-05 -7.827336645e-08 0)
(5.694310492e-05 -5.805937536e-08 0)
(5.675339828e-05 -3.886217676e-08 0)
(5.65645772e-05 -2.040375494e-08 0)
(5.637386883e-05 -2.445021588e-09 0)
(5.617853168e-05 1.52095495e-08 0)
(5.597584676e-05 3.271622242e-08 0)
(5.576312127e-05 5.019732402e-08 0)
(5.553770143e-05 6.774278246e-08 0)
(5.529699281e-05 8.540861156e-08 0)
(5.503848761e-05 1.032151542e-07 0)
(5.475979701e-05 1.211470434e-07 0)
(5.445868638e-05 1.391554444e-07 0)
(5.413311084e-05 1.571615043e-07 0)
(5.378124978e-05 1.750603672e-07 0)
(0.0002201179914 5.641572736e-06 0)
(0.0002251695575 1.293336359e-05 0)
(0.0002303482987 1.659351944e-05 0)
(0.00023404238 1.852856726e-05 0)
(0.0002359726536 1.964244426e-05 0)
(0.0002363641633 2.005866126e-05 0)
(0.0002353955886 1.982243519e-05 0)
(0.0002332266755 1.907640764e-05 0)
(0.0002300854758 1.797800838e-05 0)
(0.0002262325344 1.664913218e-05 0)
(0.000221903036 1.518425775e-05 0)
(0.0002172889997 1.366303882e-05 0)
(0.000212545651 1.215109668e-05 0)
(0.0002077978661 1.069812788e-05 0)
(0.0002031419615 9.338504739e-06 0)
(0.0001986474863 8.093603634e-06 0)
(0.0001943611677 6.974297103e-06 0)
(0.0001903116812 5.983249603e-06 0)
(0.0001865138862 5.11707124e-06 0)
(0.0001829722819 4.368256649e-06 0)
(0.000179683862 3.726794744e-06 0)
(0.0001766404384 3.181420231e-06 0)
(0.000173830484 2.720552364e-06 0)
(0.0001712405769 2.33293944e-06 0)
(0.0001688563488 2.008025314e-06 0)
(0.0001666631207 1.736200998e-06 0)
(0.0001646463608 1.508956395e-06 0)
(0.0001627919994 1.318930171e-06 0)
(0.0001610866188 1.159881523e-06 0)
(0.0001595175497 1.026613909e-06 0)
(0.0001580728993 9.148725684e-07 0)
(0.000156741535 8.212296581e-07 0)
(0.0001555130376 7.429665268e-07 0)
(0.0001543776379 6.779598559e-07 0)
(0.0001533261448 6.245759124e-07 0)
(0.0001523498717 5.815752079e-07 0)
(0.0001514405663 5.480284445e-07 0)
(0.0001505903485 5.232436553e-07 0)
(0.0001497916572 5.067038399e-07 0)
(0.0001490372067 4.980146619e-07 0)
(0.0001483199509 4.968621095e-07 0)
(0.0001476330568 5.029793671e-07 0)
(0.0001469698876 5.161208028e-07 0)
(0.0001463239968 5.360403359e-07 0)
(0.0001456891309 5.624723445e-07 0)
(0.0001450592387 5.951150228e-07 0)
(0.0001444284884 6.336175422e-07 0)
(0.0001437912891 6.775728808e-07 0)
(0.0001431423177 7.265144686e-07 0)
(0.0001424765502 7.799159817e-07 0)
(0.0002187788267 1.468312065e-06 0)
(0.0002200387741 4.392666822e-06 0)
(0.0002226222791 7.023602594e-06 0)
(0.0002259660201 9.376261706e-06 0)
(0.0002295375703 1.147314e-05 0)
(0.0002331050894 1.319899865e-05 0)
(0.0002365004395 1.445793082e-05 0)
(0.0002395308311 1.524581082e-05 0)
(0.0002420473074 1.560813372e-05 0)
(0.0002439808248 1.560245555e-05 0)
(0.0002453228289 1.529173905e-05 0)
(0.0002461001185 1.474406783e-05 0)
(0.0002463624071 1.402715919e-05 0)
(0.0002461743889 1.320200444e-05 0)
(0.0002456072388 1.231944606e-05 0)
(0.0002447315054 1.141956953e-05 0)
(0.0002436128512 1.05324194e-05 0)
(0.000242310043 9.67918295e-06 0)
(0.0002408741358 8.873611304e-06 0)
(0.0002393483257 8.123538634e-06 0)
(0.0002377682953 7.43233057e-06 0)
(0.0002361629058 6.80014555e-06 0)
(0.0002345550385 6.224978834e-06 0)
(0.0002329624174 5.703481055e-06 0)
(0.0002313984372 5.231547343e-06 0)
(0.000229873001 4.804774915e-06 0)
(0.0002283932084 4.418799919e-06 0)
(0.0002269639062 4.069517844e-06 0)
(0.0002255881403 3.753210847e-06 0)
(0.0002242675294 3.466609306e-06 0)
(0.0002230025642 3.206908403e-06 0)
(0.000221792842 2.971754276e-06 0)
(0.0002206372479 2.759210569e-06 0)
(0.0002195340935 2.567713678e-06 0)
(0.0002184812213 2.396022684e-06 0)
(0.0002174760842 2.243168012e-06 0)
(0.0002165158047 2.108401285e-06 0)
(0.0002155972214 1.991147537e-06 0)
(0.0002147169253 1.89096024e-06 0)
(0.0002138712896 1.807479643e-06 0)
(0.0002130564947 1.740395447e-06 0)
(0.000212268553 1.689414473e-06 0)
(0.0002115033337 1.654233088e-06 0)
(0.0002107565904 1.634513498e-06 0)
(0.0002100239909 1.62986329e-06 0)
(0.0002093011489 1.639818176e-06 0)
(0.0002085836585 1.66382803e-06 0)
(0.0002078671288 1.701245709e-06 0)
(0.0002071472204 1.751320503e-06 0)
(0.0002064196828 1.813195753e-06 0)
(0.0002187705967 1.485658067e-06 0)
(0.0002194980366 4.322410704e-06 0)
(0.0002207760551 6.724662782e-06 0)
(0.0002224208246 8.580169881e-06 0)
(0.0002242736675 9.983862982e-06 0)
(0.0002263014031 1.103948305e-05 0)
(0.0002284989189 1.179508517e-05 0)
(0.0002308098837 1.228358382e-05 0)
(0.0002331470935 1.25424961e-05 0)
(0.0002354318376 1.260722877e-05 0)
(0.0002376033151 1.250749266e-05 0)
(0.0002396139906 1.227060258e-05 0)
(0.0002414287685 1.192368831e-05 0)
(0.000243026764 1.149284933e-05 0)
(0.0002444007824 1.100194543e-05 0)
(0.0002455545558 1.047206758e-05 0)
(0.0002464995905 9.921358153e-06 0)
(0.000247252489 9.364875375e-06 0)
(0.0002478327649 8.81455718e-06 0)
(0.000248261064 8.279374727e-06 0)
(0.0002485578204 7.765648502e-06 0)
(0.0002487423516 7.277448284e-06 0)
(0.0002488323203 6.817010805e-06 0)
(0.0002488434674 6.385161182e-06 0)
(0.0002487895592 5.981735129e-06 0)
(0.0002486824705 5.605912283e-06 0)
(0.0002485323197 5.2564725e-06 0)
(0.0002483476299 4.931997968e-06 0)
(0.0002481355083 4.631028934e-06 0)
(0.000247901828 4.35217638e-06 0)
(0.0002476513994 4.094196882e-06 0)
(0.0002473881194 3.856036333e-06 0)
(0.0002471151008 3.636849157e-06 0)
(0.0002468347797 3.435998948e-06 0)
(0.0002465490041 3.253045482e-06 0)
(0.0002462591058 3.087722193e-06 0)
(0.0002459659579 2.939907573e-06 0)
(0.0002456700215 2.809592834e-06 0)
(0.0002453713841 2.696847457e-06 0)
(0.0002450697914 2.601784488e-06 0)
(0.0002447646753 2.524527249e-06 0)
(0.0002444551794 2.46517851e-06 0)
(0.0002441401852 2.423792577e-06 0)
(0.0002438183386 2.40035019e-06 0)
(0.0002434880776 2.394736011e-06 0)
(0.0002431476622 2.406718927e-06 0)
(0.0002427952041 2.43593567e-06 0)
(0.0002424286988 2.481877775e-06 0)
(0.0002420460611 2.543883315e-06 0)
(0.0002416451621 2.621132952e-06 0)
(0.0002187114469 1.032084585e-06 0)
(0.0002191178247 3.001405988e-06 0)
(0.0002199344144 4.752349194e-06 0)
(0.0002210793445 6.226853926e-06 0)
(0.0002224179269 7.437571821e-06 0)
(0.0002238676987 8.409447594e-06 0)
(0.0002253940007 9.150386573e-06 0)
(0.000226968779 9.667576926e-06 0)
(0.0002285593148 9.981393842e-06 0)
(0.000230137873 1.012046233e-05 0)
(0.0002316854187 1.011349534e-05 0)
(0.000233187569 9.986970401e-06 0)
(0.0002346317411 9.765585805e-06 0)
(0.0002360076481 9.472073974e-06 0)
(0.0002373083125 9.126554427e-06 0)
(0.0002385300635 8.746227886e-06 0)
(0.0002396719746 8.345427417e-06 0)
(0.0002407353258 7.935786591e-06 0)
(0.0002417231481 7.5264358e-06 0)
(0.0002426397536 7.124251204e-06 0)
(0.0002434902558 6.734160969e-06 0)
(0.000244280147 6.35947722e-06 0)
(0.0002450149667 6.002222343e-06 0)
(0.0002457000609 5.663436207e-06 0)
(0.0002463404192 5.343453096e-06 0)
(0.0002469405781 5.042126521e-06 0)
(0.0002475045729 4.759009087e-06 0)
(0.0002480359269 4.493499673e-06 0)
(0.0002485376659 4.244959692e-06 0)
(0.000249012352 4.012797997e-06 0)
(0.0002494621248 3.796527672e-06 0)
(0.0002498887448 3.595799668e-06 0)
(0.0002502936352 3.410418205e-06 0)
(0.0002506779197 3.240342075e-06 0)
(0.0002510424557 3.085675013e-06 0)
(0.0002513878609 2.946647703e-06 0)
(0.0002517145362 2.8235947e-06 0)
(0.0002520226824 2.71692746e-06 0)
(0.0002523123127 2.627104388e-06 0)
(0.0002525832638 2.554599869e-06 0)
(0.000252835204 2.499873247e-06 0)
(0.0002530676419 2.46333841e-06 0)
(0.0002532799356 2.445334942e-06 0)
(0.0002534713035 2.446101551e-06 0)
(0.0002536408365 2.465751862e-06 0)
(0.0002537875133 2.504252623e-06 0)
(0.0002539102179 2.561404811e-06 0)
(0.0002540077612 2.636828959e-06 0)
(0.0002540789047 2.72995419e-06 0)
(0.000254122386 2.840011613e-06 0)
(0.0002186958912 7.882281306e-07 0)
(0.0002189837049 2.332349147e-06 0)
(0.0002195801627 3.768927038e-06 0)
(0.0002204460381 5.034024972e-06 0)
(0.0002214888656 6.101311671e-06 0)
(0.0002226384962 6.969192621e-06 0)
(0.0002238567751 7.641965179e-06 0)
(0.0002251157598 8.126989776e-06 0)
(0.0002263868341 8.438550401e-06 0)
(0.0002276447008 8.596832076e-06 0)
(0.0002288718222 8.623892962e-06 0)
(0.000230057553 8.541391388e-06 0)
(0.000231195567 8.370146735e-06 0)
(0.0002322825716 8.129810064e-06 0)
(0.0002333179141 7.838217354e-06 0)
(0.0002343030692 7.510894218e-06 0)
(0.0002352409385 7.160920265e-06 0)
(0.0002361352668 6.799021937e-06 0)
(0.0002369902577 6.433752112e-06 0)
(0.0002378102983 6.071714446e-06 0)
(0.0002385997305 5.717824433e-06 0)
(0.0002393626679 5.375587684e-06 0)
(0.0002401028693 5.047371577e-06 0)
(0.0002408236617 4.73465538e-06 0)
(0.000241527901 4.438252702e-06 0)
(0.0002422179638 4.158502758e-06 0)
(0.0002428957617 3.895429797e-06 0)
(0.0002435627695 3.648873487e-06 0)
(0.0002442200612 3.418591819e-06 0)
(0.0002448683502 3.204338665e-06 0)
(0.0002455080327 3.005919129e-06 0)
(0.0002461392284 2.823225717e-06 0)
(0.00024676182 2.656259237e-06 0)
(0.0002473754863 2.505137273e-06 0)
(0.0002479797315 2.370092602e-06 0)
(0.000248573909 2.251462856e-06 0)
(0.0002491572416 2.149674494e-06 0)
(0.0002497288358 2.065221531e-06 0)
(0.0002502876929 1.998639705e-06 0)
(0.0002508327182 1.950478207e-06 0)
(0.0002513627282 1.921270047e-06 0)
(0.0002518764571 1.911501324e-06 0)
(0.0002523725645 1.921581026e-06 0)
(0.0002528496447 1.951812527e-06 0)
(0.0002533062371 2.002365944e-06 0)
(0.0002537408381 2.07325258e-06 0)
(0.0002541519159 2.164302985e-06 0)
(0.0002545379273 2.27514878e-06 0)
(0.0002548973402 2.405207603e-06 0)
(0.0002552286569 2.553672545e-06 0)
(0.0002186873148 6.172671307e-07 0)
(0.0002189029182 1.832275623e-06 0)
(0.0002193498786 2.977422848e-06 0)
(0.0002200096836 4.00335329e-06 0)
(0.0002208252341 4.884238305e-06 0)
(0.0002217482214 5.614414297e-06 0)
(0.0002227476668 6.195957903e-06 0)
(0.0002237989566 6.633247122e-06 0)
(0.0002248773277 6.934018718e-06 0)
(0.0002259597842 7.110068597e-06 0)
(0.0002270283498 7.175732606e-06 0)
(0.0002280704752 7.146176947e-06 0)
(0.0002290777769 7.036581217e-06 0)
(0.0002300450716 6.861730676e-06 0)
(0.0002309699649 6.635559682e-06 0)
(0.0002318524581 6.370726565e-06 0)
(0.0002326943805 6.078376072e-06 0)
(0.0002334988064 5.768073747e-06 0)
(0.0002342695844 5.447832734e-06 0)
(0.0002350109732 5.124194181e-06 0)
(0.000235727351 4.802353499e-06 0)
(0.0002364229853 4.486322176e-06 0)
(0.0002371018679 4.179107224e-06 0)
(0.0002377676063 3.882892301e-06 0)
(0.0002384233631 3.599210735e-06 0)
(0.0002390718287 3.329103495e-06 0)
(0.0002397152192 3.073257631e-06 0)
(0.0002403552919 2.832123344e-06 0)
(0.0002409933709 2.60600867e-06 0)
(0.0002416303801 2.395155456e-06 0)
(0.0002422668786 2.199798201e-06 0)
(0.0002429030968 2.020205056e-06 0)
(0.0002435389716 1.856704966e-06 0)
(0.000244174178 1.709702025e-06 0)
(0.0002448081569 1.579676906e-06 0)
(0.0002454401395 1.467185023e-06 0)
(0.00024606917 1.372848151e-06 0)
(0.0002466941209 1.297334589e-06 0)
(0.0002473137084 1.2413361e-06 0)
(0.0002479265056 1.205543335e-06 0)
(0.0002485309553 1.190617562e-06 0)
(0.0002491253824 1.197157715e-06 0)
(0.0002497080079 1.225667816e-06 0)
(0.0002502769647 1.276529198e-06 0)
(0.0002508303118 1.349971744e-06 0)
(0.0002513660552 1.446044964e-06 0)
(0.0002518821703 1.56459145e-06 0)
(0.0002523766267 1.705224626e-06 0)
(0.0002528474142 1.867310179e-06 0)
(0.0002532925731 2.04995569e-06 0)
(0.0002186809831 4.864953933e-07 0)
(0.0002188466269 1.445625109e-06 0)
(0.0002191922104 2.357601529e-06 0)
(0.0002197097571 3.18840642e-06 0)
(0.0002203621457 3.916621536e-06 0)
(0.0002211150469 4.533145974e-06 0)
(0.0002219437153 5.035261736e-06 0)
(0.0002228275446 5.423347292e-06 0)
(0.0002237465359 5.700959288e-06 0)
(0.0002246821496 5.875156962e-06 0)
(0.0002256190913 5.955612969e-06 0)
(0.0002265457496 5.953311976e-06 0)
(0.0002274536244 5.879686474e-06 0)
(0.0002283367541 5.746155733e-06 0)
(0.0002291914272 5.563759612e-06 0)
(0.0002300159399 5.342815174e-06 0)
(0.0002308102476 5.092670145e-06 0)
(0.000231575565 4.821579222e-06 0)
(0.0002323140068 4.536669437e-06 0)
(0.0002330282902 4.243961851e-06 0)
(0.0002337214844 3.948436176e-06 0)
(0.0002343968017 3.654129712e-06 0)
(0.0002350574302 3.364258106e-06 0)
(0.0002357064092 3.081345131e-06 0)
(0.0002363465417 2.807352031e-06 0)
(0.000236980337 2.543797951e-06 0)
(0.0002376099776 2.291868995e-06 0)
(0.0002382373024 2.052516723e-06 0)
(0.0002388638031 1.826538453e-06 0)
(0.0002394906341 1.614642618e-06 0)
(0.0002401186247 1.417497777e-06 0)
(0.0002407482937 1.235774455e-06 0)
(0.0002413798669 1.070175671e-06 0)
(0.0002420132902 9.214530295e-07 0)
(0.0002426482484 7.904063723e-07 0)
(0.0002432841875 6.778784583e-07 0)
(0.0002439203225 5.847564857e-07 0)
(0.000244555644 5.119567273e-07 0)
(0.0002451889338 4.603993275e-07 0)
(0.000245818777 4.309831254e-07 0)
(0.0002464435685 4.245572811e-07 0)
(0.0002470615232 4.418923513e-07 0)
(0.0002476706979 4.836490389e-07 0)
(0.0002482690137 5.503408568e-07 0)
(0.0002488542712 6.4229967e-07 0)
(0.0002494241726 7.596453977e-07 0)
(0.000249976349 9.022579117e-07 0)
(0.0002505083925 1.069753883e-06 0)
(0.0002510178953 1.261455954e-06 0)
(0.0002515024893 1.476387498e-06 0)
(0.0002186767052 3.844663181e-07 0)
(0.0002188085182 1.143795987e-06 0)
(0.0002190844343 1.870466415e-06 0)
(0.0002195010044 2.539810361e-06 0)
(0.0002200324456 3.13409626e-06 0)
(0.0002206540975 3.64345135e-06 0)
(0.0002213472614 4.063250284e-06 0)
(0.0002220956968 4.392201788e-06 0)
(0.000222883517 4.631901609e-06 0)
(0.0002236958066 4.786693446e-06 0)
(0.0002245197856 4.86307776e-06 0)
(0.0002253452156 4.868876732e-06 0)
(0.0002261641839 4.812568759e-06 0)
(0.00022697079 4.702863151e-06 0)
(0.000227760939 4.548380509e-06 0)
(0.0002285321624 4.357370161e-06 0)
(0.0002292833831 4.137489395e-06 0)
(0.0002300146418 3.895667908e-06 0)
(0.0002307268344 3.638045486e-06 0)
(0.0002314214823 3.369960509e-06 0)
(0.000232100534 3.095975396e-06 0)
(0.0002327661935 2.819931817e-06 0)
(0.0002334207764 2.545026438e-06 0)
(0.0002340665952 2.273898552e-06 0)
(0.0002347058703 2.008725438e-06 0)
(0.0002353406634 1.751313534e-06 0)
(0.0002359728369 1.503178489e-06 0)
(0.0002366040228 1.265621961e-06 0)
(0.0002372355995 1.039798447e-06 0)
(0.0002378686797 8.267869739e-07 0)
(0.0002385041102 6.276229453e-07 0)
(0.0002391424804 4.433236368e-07 0)
(0.000239784125 2.749241893e-07 0)
(0.00024042911 1.234938257e-07 0)
(0.0002410772271 -9.85323486e-09 0)
(0.000241728021 -1.239545845e-07 0)
(0.0002423807991 -2.176206539e-07 0)
(0.0002430346153 -2.896483814e-07 0)
(0.0002436882726 -3.388367648e-07 0)
(0.0002443403348 -3.640152759e-07 0)
(0.0002449891354 -3.640766178e-07 0)
(0.0002456327891 -3.380076635e-07 0)
(0.0002462691977 -2.849244802e-07 0)
(0.0002468960642 -2.041149205e-07 0)
(0.0002475109185 -9.507857618e-08 0)
(0.0002481111476 4.243692244e-08 0)
(0.0002486940316 2.084023412e-07 0)
(0.000249256767 4.024733293e-07 0)
(0.0002497965378 6.239770518e-07 0)
(0.0002503105391 8.718748465e-07 0)
(0.0002186736384 3.025743931e-07 0)
(0.0002187811141 9.006941556e-07 0)
(0.0002190064091 1.475028988e-06 0)
(0.0002193482985 2.007244358e-06 0)
(0.0002197882324 2.483326945e-06 0)
(0.0002203083958 2.89450502e-06 0)
(0.0002208949695 3.235888875e-06 0)
(0.0002215353682 3.505334038e-06 0)
(0.0002222169021 3.703033124e-06 0)
(0.0002229274412 3.831325402e-06 0)
(0.0002236563286 3.894327706e-06 0)
(0.0002243947161 3.897412403e-06 0)
(0.0002251354866 3.846721116e-06 0)
(0.0002258730948 3.74879662e-06 0)
(0.0002266034435 3.610298882e-06 0)
(0.0002273237617 3.437766455e-06 0)
(0.0002280324433 3.237424376e-06 0)
(0.0002287288555 3.01504941e-06 0)
(0.0002294131457 2.775890464e-06 0)
(0.0002300860635 2.524632691e-06 0)
(0.0002307488025 2.265393441e-06 0)
(0.0002314028587 2.001748356e-06 0)
(0.0002320499079 1.736777641e-06 0)
(0.0002326917088 1.473119502e-06 0)
(0.0002333300226 1.213036898e-06 0)
(0.0002339665386 9.584958768e-07 0)
(0.0002346028246 7.112246803e-07 0)
(0.0002352402948 4.727891035e-07 0)
(0.0002358802017 2.446194006e-07 0)
(0.0002365236012 2.806345058e-08 0)
(0.0002371713009 -1.755470145e-07 0)
(0.0002378238804 -3.648721143e-07 0)
(0.0002384816907 -5.385597803e-07 0)
(0.0002391448375 -6.952275344e-07 0)
(0.0002398131847 -8.334412992e-07 0)
(0.0002404863318 -9.517153135e-07 0)
(0.0002411635982 -1.048535656e-06 0)
(0.0002418440358 -1.122373552e-06 0)
(0.0002425264247 -1.171702263e-06 0)
(0.0002432092639 -1.195027606e-06 0)
(0.0002438907737 -1.190923105e-06 0)
(0.0002445689022 -1.15807078e-06 0)
(0.000245241333 -1.095305779e-06 0)
(0.0002459055001 -1.001658549e-06 0)
(0.0002465586115 -8.763992683e-07 0)
(0.0002471976776 -7.190839632e-07 0)
(0.000247819543 -5.295984398e-07 0)
(0.000248420945 -3.081996476e-07 0)
(0.0002489985339 -5.553957837e-08 0)
(0.0002495489583 2.272986588e-07 0)
(0.0002186713426 2.35281688e-07 0)
(0.0002187606587 7.005059203e-07 0)
(0.0002189481109 1.147906641e-06 0)
(0.0002192336907 1.56368314e-06 0)
(0.000219603605 1.936891665e-06 0)
(0.000220044697 2.260109243e-06 0)
(0.0002205467114 2.528635039e-06 0)
(0.0002210999513 2.7398736e-06 0)
(0.0002216943332 2.893120462e-06 0)
(0.0002223200465 2.989422619e-06 0)
(0.0002229683063 3.031314997e-06 0)
(0.0002236316144 3.022457894e-06 0)
(0.0002243037339 2.967277796e-06 0)
(0.000224979622 2.870669323e-06 0)
(0.0002256553774 2.737756066e-06 0)
(0.000226328171 2.573691702e-06 0)
(0.0002269961402 2.383497697e-06 0)
(0.0002276582565 2.171939175e-06 0)
(0.0002283141881 1.943443664e-06 0)
(0.000228964165 1.702057451e-06 0)
(0.0002296088566 1.451418577e-06 0)
(0.0002302492618 1.194767472e-06 0)
(0.0002308865978 9.349833172e-07 0)
(0.0002315222127 6.746088459e-07 0)
(0.000232157528 4.159152892e-07 0)
(0.0002327939702 1.609157885e-07 0)
(0.0002334329238 -8.854704022e-08 0)
(0.0002340756638 -3.307596239e-07 0)
(0.0002347233052 -5.640729623e-07 0)
(0.0002353768422 -7.8689262e-07 0)
(0.0002360371183 -9.976382583e-07 0)
(0.0002367047547 -1.194700351e-06 0)
(0.0002373801405 -1.376431078e-06 0)
(0.0002380634413 -1.54112986e-06 0)
(0.0002387545743 -1.687038027e-06 0)
(0.0002394531771 -1.812345774e-06 0)
(0.0002401585993 -1.915192269e-06 0)
(0.0002408698939 -1.993682951e-06 0)
(0.0002415857994 -2.045919582e-06 0)
(0.000242304729 -2.070032704e-06 0)
(0.0002430247667 -2.064220475e-06 0)
(0.0002437436655 -2.026795496e-06 0)
(0.0002444588521 -1.9562357e-06 0)
(0.000245167439 -1.851237223e-06 0)
(0.0002458662467 -1.710769834e-06 0)
(0.0002465518349 -1.53413241e-06 0)
(0.0002472205441 -1.321005813e-06 0)
(0.0002478685466 -1.071498934e-06 0)
(0.0002484919033 -7.862022708e-07 0)
(0.0002490866264 -4.66208892e-07 0)
(0.0002186695859 1.789798427e-07 0)
(0.0002187450307 5.327792868e-07 0)
(0.0002189035223 8.729230633e-07 0)
(0.0002191457102 1.188839716e-06 0)
(0.0002194610215 1.471928102e-06 0)
(0.0002198395235 1.716024853e-06 0)
(0.0002202735703 1.916891676e-06 0)
(0.0002207557409 2.071881425e-06 0)
(0.000221278077 2.17984967e-06 0)
(0.0002218326789 2.241062429e-06 0)
(0.0002224123417 2.257000162e-06 0)
(0.0002230107731 2.230099769e-06 0)
(0.0002236225937 2.163497326e-06 0)
(0.0002242433225 2.060801867e-06 0)
(0.0002248693711 1.925905261e-06 0)
(0.0002254980139 1.762820849e-06 0)
(0.0002261273215 1.575552681e-06 0)
(0.0002267560727 1.36797317e-06 0)
(0.0002273836643 1.143758639e-06 0)
(0.0002280100006 9.063598176e-07 0)
(0.0002286354003 6.589340266e-07 0)
(0.0002292605306 4.043735308e-07 0)
(0.0002298863029 1.452892664e-07 0)
(0.0002305138064 -1.159317136e-07 0)
(0.000231144215 -3.77110557e-07 0)
(0.0002317787374 -6.362226943e-07 0)
(0.0002324186135 -8.913570502e-07 0)
(0.0002330650544 -1.140701336e-06 0)
(0.0002337191934 -1.38246736e-06 0)
(0.0002343820244 -1.614863957e-06 0)
(0.0002350543966 -1.836090551e-06 0)
(0.0002357369921 -2.04430291e-06 0)
(0.0002364302911 -2.237580529e-06 0)
(0.0002371345457 -2.413919248e-06 0)
(0.0002378497531 -2.571232313e-06 0)
(0.0002385756273 -2.707348584e-06 0)
(0.0002393115718 -2.820020061e-06 0)
(0.0002400566561 -2.906944702e-06 0)
(0.0002408095933 -2.965796229e-06 0)
(0.0002415687202 -2.994261065e-06 0)
(0.0002423319818 -2.990085232e-06 0)
(0.0002430969228 -2.951128862e-06 0)
(0.0002438606873 -2.875426239e-06 0)
(0.0002446200285 -2.761250516e-06 0)
(0.0002453713283 -2.607181396e-06 0)
(0.0002461106297 -2.412173642e-06 0)
(0.0002468336813 -2.175624382e-06 0)
(0.0002475359944 -1.897436214e-06 0)
(0.0002482129131 -1.578073117e-06 0)
(0.0002488596948 -1.218604035e-06 0)
(0.0002186682113 1.311527402e-07 0)
(0.0002187328136 3.901288057e-07 0)
(0.0002188686347 6.384242752e-07 0)
(0.0002190766794 8.678206526e-07 0)
(0.0002193486458 1.071518158e-06 0)
(0.0002196768948 1.244462324e-06 0)
(0.0002200556932 1.382974625e-06 0)
(0.0002204793687 1.484558727e-06 0)
(0.0002209416473 1.547879726e-06 0)
(0.0002214361724 1.572716748e-06 0)
(0.000221957052 1.55982898e-06 0)
(0.0002224990457 1.51077494e-06 0)
(0.0002230575763 1.427730423e-06 0)
(0.0002236287401 1.31331645e-06 0)
(0.0002242093295 1.170452399e-06 0)
(0.0002247968334 1.002219807e-06 0)
(0.0002253893809 8.118035216e-07 0)
(0.0002259856953 6.023095566e-07 0)
(0.0002265850741 3.767557223e-07 0)
(0.0002271872526 1.380050317e-07 0)
(0.0002277923467 -1.112259015e-07 0)
(0.0002284008058 -3.684147248e-07 0)
(0.0002290133296 -6.312193158e-07 0)
(0.0002296308249 -8.974447444e-07 0)
(0.0002302543454 -1.165040996e-06 0)
(0.0002308850505 -1.432029815e-06 0)
(0.0002315241173 -1.696504357e-06 0)
(0.0002321727182 -1.956587218e-06 0)
(0.0002328319879 -2.210407047e-06 0)
(0.0002335029783 -2.456051918e-06 0)
(0.0002341866324 -2.691539094e-06 0)
(0.0002348837476 -2.914796097e-06 0)
(0.000235594931 -3.123640788e-06 0)
(0.0002363205666 -3.315769106e-06 0)
(0.0002370607805 -3.488750069e-06 0)
(0.0002378154019 -3.640028254e-06 0)
(0.0002385839241 -3.766935018e-06 0)
(0.0002393654695 -3.866710256e-06 0)
(0.0002401587545 -3.936535637e-06 0)
(0.0002409620581 -3.97357856e-06 0)
(0.0002417731961 -3.975046126e-06 0)
(0.000242589503 -3.938248802e-06 0)
(0.0002434078235 -3.860672838e-06 0)
(0.0002442245152 -3.740059655e-06 0)
(0.0002450354659 -3.574489971e-06 0)
(0.0002458361261 -3.362470095e-06 0)
(0.0002466215578 -3.103017131e-06 0)
(0.0002473865003 -2.79573922e-06 0)
(0.0002481254528 -2.440907195e-06 0)
(0.0002488327701 -2.039514311e-06 0)
(0.0002186671115 9.000476013e-08 0)
(0.0002187230574 2.672702699e-07 0)
(0.0002188407697 4.360190645e-07 0)
(0.0002190214367 5.897891258e-07 0)
(0.0002192584016 7.231728795e-07 0)
(0.0002195456877 8.320414953e-07 0)
(0.0002198789678 9.132508565e-07 0)
(0.0002202539032 9.645414333e-07 0)
(0.0002206655443 9.845353191e-07 0)
(0.0002211087793 9.727266083e-07 0)
(0.000221578807 9.293947795e-07 0)
(0.0002220712951 8.554768969e-07 0)
(0.0002225823906 7.524478781e-07 0)
(0.0002231087429 6.221742715e-07 0)
(0.0002236475351 4.668173503e-07 0)
(0.0002241965604 2.887309538e-07 0)
(0.0002247541003 9.031889991e-08 0)
(0.0002253188978 -1.259242002e-07 0)
(0.0002258902162 -3.57544154e-07 0)
(0.0002264677462 -6.021966523e-07 0)
(0.0002270515368 -8.576055699e-07 0)
(0.0002276419319 -1.121614095e-06 0)
(0.0002282395594 -1.39215546e-06 0)
(0.0002288452539 -1.667263115e-06 0)
(0.0002294600139 -1.945031137e-06 0)
(0.0002300849542 -2.223605458e-06 0)
(0.0002307212584 -2.501142852e-06 0)
(0.0002313701533 -2.775770268e-06 0)
(0.0002320328668 -3.045559199e-06 0)
(0.0002327105763 -3.308491048e-06 0)
(0.0002334043707 -3.562430434e-06 0)
(0.0002341152135 -3.805105403e-06 0)
(0.0002348438978 -4.034085649e-06 0)
(0.0002355910002 -4.246766654e-06 0)
(0.0002363568343 -4.440363353e-06 0)
(0.0002371414021 -4.611911926e-06 0)
(0.0002379443431 -4.758280945e-06 0)
(0.0002387648839 -4.876194773e-06 0)
(0.0002396017897 -4.962270139e-06 0)
(0.0002404533189 -5.013065648e-06 0)
(0.0002413171826 -5.025144505e-06 0)
(0.0002421905135 -4.995150154e-06 0)
(0.0002430698458 -4.919893529e-06 0)
(0.0002439511093 -4.796450181e-06 0)
(0.0002448296418 -4.622264909e-06 0)
(0.0002457002202 -4.395260573e-06 0)
(0.0002465571131 -4.113946928e-06 0)
(0.0002473941558 -3.777524722e-06 0)
(0.0002482048469 -3.385979815e-06 0)
(0.0002489824654 -2.940161945e-06 0)
(0.0002186662082 5.423152701e-08 0)
(0.000218715088 1.603785063e-07 0)
(0.0002188180468 2.596108493e-07 0)
(0.0002189763535 3.467814124e-07 0)
(0.0002191845661 4.175628847e-07 0)
(0.0002194379221 4.686003235e-07 0)
(0.0002197331436 4.971944447e-07 0)
(0.0002200669191 5.013740881e-07 0)
(0.000220435332 4.798035848e-07 0)
(0.0002208342704 4.318245078e-07 0)
(0.0002212598284 3.57407938e-07 0)
(0.0002217084539 2.570594797e-07 0)
(0.000222176937 1.317120631e-07 0)
(0.0002226624417 -1.73391835e-08 0)
(0.0002231625756 -1.88543435e-07 0)
(0.0002236753291 -3.801577974e-07 0)
(0.0002241991968 -5.903691759e-07 0)
(0.000224733151 -8.172451495e-07 0)
(0.0002252764842 -1.0588534e-06 0)
(0.0002258288855 -1.31328187e-06 0)
(0.0002263904078 -1.578682642e-06 0)
(0.0002269613976 -1.853248643e-06 0)
(0.0002275424627 -2.135226704e-06 0)
(0.000228134434 -2.422902057e-06 0)
(0.0002287383322 -2.71457305e-06 0)
(0.0002293553291 -3.008526851e-06 0)
(0.0002299867026 -3.303002994e-06 0)
(0.0002306337983 -3.596162766e-06 0)
(0.0002312979921 -3.886063105e-06 0)
(0.0002319806464 -4.170623726e-06 0)
(0.000232683066 -4.44759455e-06 0)
(0.0002334064542 -4.714529716e-06 0)
(0.0002341518614 -4.968764727e-06 0)
(0.0002349201309 -5.207397727e-06 0)
(0.0002357118417 -5.427278577e-06 0)
(0.0002365272467 -5.625007519e-06 0)
(0.000237366208 -5.796945158e-06 0)
(0.0002382281308 -5.93923608e-06 0)
(0.000239111897 -6.047847841e-06 0)
(0.0002400158014 -6.118626329e-06 0)
(0.0002409374936 -6.147367945e-06 0)
(0.0002418739294 -6.129908434e-06 0)
(0.0002428213345 -6.062227632e-06 0)
(0.0002437751864 -5.940568583e-06 0)
(0.0002447302171 -5.761568238e-06 0)
(0.0002456804407 -5.522395513e-06 0)
(0.0002466192093 -5.220891251e-06 0)
(0.0002475392978 -4.85570377e-06 0)
(0.0002484330187 -4.426412878e-06 0)
(0.000249292364 -3.933634996e-06 0)
(0.0002186654632 2.276031608e-08 0)
(0.0002187084967 6.637194683e-08 0)
(0.0002187992099 1.043453968e-07 0)
(0.0002189388947 1.324814427e-07 0)
(0.0002191230611 1.472622357e-07 0)
(0.0002193478089 1.45934315e-07 0)
(0.0002196106617 1.263465922e-07 0)
(0.000219909144 8.668416263e-08 0)
(0.0002202401189 2.567607364e-08 0)
(0.0002206002874 -5.740708743e-08 0)
(0.0002209864908 -1.627997339e-07 0)
(0.0002213957992 -2.903040982e-07 0)
(0.0002218255582 -4.393777984e-07 0)
(0.0002222734089 -6.091761459e-07 0)
(0.0002227373122 -7.986351417e-07 0)
(0.0002232156004 -1.006527681e-06 0)
(0.0002237069934 -1.231464557e-06 0)
(0.0002242105835 -1.472035478e-06 0)
(0.000224725806 -1.726783868e-06 0)
(0.0002252524434 -1.994229789e-06 0)
(0.0002257906013 -2.272910078e-06 0)
(0.00022634068 -2.561376557e-06 0)
(0.0002269033489 -2.858188241e-06 0)
(0.0002274795151 -3.161894559e-06 0)
(0.0002280702927 -3.471012777e-06 0)
(0.0002286769708 -3.784002947e-06 0)
(0.0002293009772 -4.09923643e-06 0)
(0.0002299438423 -4.414960679e-06 0)
(0.0002306071631 -4.729265358e-06 0)
(0.00023129256 -5.040047455e-06 0)
(0.0002320016306 -5.344976114e-06 0)
(0.000232735899 -5.641460617e-06 0)
(0.0002334967599 -5.926621381e-06 0)
(0.0002342854155 -6.197265164e-06 0)
(0.0002351028069 -6.449867807e-06 0)
(0.0002359495381 -6.680567216e-06 0)
(0.0002368257955 -6.885169214e-06 0)
(0.0002377312626 -7.059169135e-06 0)
(0.0002386650324 -7.19779166e-06 0)
(0.0002396255211 -7.2960507e-06 0)
(0.0002406103866 -7.348830741e-06 0)
(0.000241616456 -7.350990375e-06 0)
(0.0002426396677 -7.297487751e-06 0)
(0.0002436750336 -7.183526481e-06 0)
(0.000244716628 -7.004718936e-06 0)
(0.0002457576074 -6.757261841e-06 0)
(0.0002467902674 -6.438117136e-06 0)
(0.000247806139 -6.045189615e-06 0)
(0.0002487961236 -5.577491785e-06 0)
(0.0002497506672 -5.03528558e-06 0)
(0.0002186648813 -4.947266287e-09 0)
(0.0002187031253 -1.651211787e-08 0)
(0.0002187835368 -3.279699375e-08 0)
(0.0002189073823 -5.723129153e-08 0)
(0.0002190709448 -9.267843075e-08 0)
(0.0002192712164 -1.413960131e-07 0)
(0.0002195062246 -2.051814788e-07 0)