/*--------------------------------*- C++ -*----------------------------------*\
| =========                 |                                                 |
| \\      /  F ield         | foam-extend: Open Source CFD                    |
|  \\    /   O peration     | Version:     4.1                                |
|   \\  /    A nd           | Web:         http://www.foam-extend.org         |
|    \\/     M anipulation  |                                                 |
\*---------------------------------------------------------------------------*/
FoamFile
{
    version     2.0;
    format      ascii;
    class       volVectorField;
    location    "170000";
    object      vorticity;
}
// * * * * * * * * * * * * * * * * * * * * * * * * * * * * * * * * * * * * * //

dimensions      [0 0 -1 0 0 0 0];

internalField   nonuniform List<vector> 
15920
(
(0 -0 -0.008256721669)
(0 -0 -0.008405615419)
(0 -0 -0.008449640533)
(0 -0 -0.008324714704)
(0 -0 -0.008114140264)
(0 -0 -0.007875974897)
(0 -0 -0.007621148572)
(0 -0 -0.007350889447)
(0 -0 -0.007073669522)
(0 -0 -0.006800358026)
(0 -0 -0.006538546334)
(0 -0 -0.006292404257)
(0 -0 -0.006064288144)
(0 -0 -0.005855463125)
(0 -0 -0.005666194081)
(0 -0 -0.005495904229)
(0 -0 -0.005343465946)
(0 -0 -0.00520745732)
(0 -0 -0.005086329444)
(0 -0 -0.004978514318)
(0 -0 -0.004882499401)
(0 -0 -0.004796875895)
(0 -0 -0.004720364522)
(0 -0 -0.004651824025)
(0 -0 -0.004590248452)
(0 -0 -0.004534760284)
(0 -0 -0.004484599288)
(0 -0 -0.004439109237)
(0 -0 -0.004397724117)
(0 -0 -0.004359954734)
(0 -0 -0.004325376283)
(0 -0 -0.004293617137)
(0 -0 -0.00426434894)
(0 -0 -0.004237278036)
(0 -0 -0.004212138163)
(0 -0 -0.004188684375)
(0 -0 -0.004166688145)
(0 -0 -0.004145933545)
(0 -0 -0.004126214259)
(0 -0 -0.004107331178)
(0 -0 -0.004089090621)
(0 -0 -0.004071303377)
(0 -0 -0.004053784513)
(0 -0 -0.004036353683)
(0 -0 -0.004018835664)
(0 -0 -0.004001061066)
(0 -0 -0.003982867202)
(0 -0 -0.003964099149)
(0 -0 -0.003944610948)
(0 -0 -0.003924266906)
(0 -0 0.0003536602833)
(0 -0 -9.783048372e-06)
(0 -0 -0.0003974980714)
(0 -0 -0.0007984059656)
(0 -0 -0.001195727789)
(0 -0 -0.001573267193)
(0 -0 -0.001921921965)
(0 -0 -0.002236664548)
(0 -0 -0.002513557647)
(0 -0 -0.002750380701)
(0 -0 -0.002947499361)
(0 -0 -0.003107382711)
(0 -0 -0.003233615205)
(0 -0 -0.003330237738)
(0 -0 -0.003401423336)
(0 -0 -0.003451251329)
(0 -0 -0.003483518985)
(0 -0 -0.00350162365)
(0 -0 -0.003508518794)
(0 -0 -0.003506716578)
(0 -0 -0.003498313671)
(0 -0 -0.003485029338)
(0 -0 -0.003468250419)
(0 -0 -0.003449079055)
(0 -0 -0.003428378528)
(0 -0 -0.003406814564)
(0 -0 -0.003384892048)
(0 -0 -0.003362987042)
(0 -0 -0.003341374042)
(0 -0 -0.003320248652)
(0 -0 -0.003299746085)
(0 -0 -0.003279955998)
(0 -0 -0.003260934203)
(0 -0 -0.003242711743)
(0 -0 -0.003225301789)
(0 -0 -0.003208704796)
(0 -0 -0.003192912284)
(0 -0 -0.003177909578)
(0 -0 -0.003163677688)
(0 -0 -0.003150194458)
(0 -0 -0.003137435143)
(0 -0 -0.003125372658)
(0 -0 -0.003113977724)
(0 -0 -0.00310321899)
(0 -0 -0.003093063094)
(0 -0 -0.003083474596)
(0 -0 -0.003074415783)
(0 -0 -0.003065846426)
(0 -0 -0.003057723613)
(0 -0 -0.003050001679)
(0 -0 0.0001734723662)
(0 -0 0.0002523126821)
(0 -0 0.0003160347447)
(0 -0 0.0003436695432)
(0 -0 0.0003295481454)
(0 -0 0.0002758749753)
(0 -0 0.000189103699)
(0 -0 7.709090956e-05)
(0 -0 -5.231623629e-05)
(0 -0 -0.0001918959295)
(0 -0 -0.0003354652756)
(0 -0 -0.0004781143143)
(0 -0 -0.0006162139337)
(0 -0 -0.0007472707868)
(0 -0 -0.0008697372903)
(0 -0 -0.000982817057)
(0 -0 -0.001086278121)
(0 -0 -0.001180286359)
(0 -0 -0.001265268681)
(0 -0 -0.001341807661)
(0 -0 -0.001410563993)
(0 -0 -0.001472222057)
(0 -0 -0.001527453339)
(0 -0 -0.001576893598)
(0 -0 -0.001621131863)
(0 -0 -0.001660705683)
(0 -0 -0.001696100604)
(0 -0 -0.001727752337)
(0 -0 -0.001756050502)
(0 -0 -0.001781343128)
(0 -0 -0.001803941377)
(0 -0 -0.001824124133)
(0 -0 -0.001842142279)
(0 -0 -0.001858222533)
(0 -0 -0.001872570828)
(0 -0 -0.001885375217)
(0 -0 -0.001896808343)
(0 -0 -0.001907029486)
(0 -0 -0.001916186236)
(0 -0 -0.001924415815)
(0 -0 -0.001931846116)
(0 -0 -0.00193859651)
(0 -0 -0.001944778478)
(0 -0 -0.001950496081)
(0 -0 -0.001955846317)
(0 -0 -0.001960919351)
(0 -0 -0.001965798625)
(0 -0 -0.001970560881)
(0 -0 -0.001975276117)
(0 -0 -0.001980007508)
(0 -0 0.0001465493167)
(0 -0 0.0001493941045)
(0 -0 0.0001602012733)
(0 -0 0.0001792135173)
(0 -0 0.0002038756974)
(0 -0 0.0002300283692)
(0 -0 0.0002532312937)
(0 -0 0.0002699263156)
(0 -0 0.0002778509763)
(0 -0 0.0002759839499)
(0 -0 0.000264332549)
(0 -0 0.0002436558823)
(0 -0 0.0002151694878)
(0 -0 0.0001802912442)
(0 -0 0.0001404589805)
(0 -0 9.701415692e-05)
(0 -0 5.113772796e-05)
(0 -0 3.824320897e-06)
(0 -0 -4.411776114e-05)
(0 -0 -9.205127485e-05)
(0 -0 -0.0001394873716)
(0 -0 -0.0001860607654)
(0 -0 -0.0002315057406)
(0 -0 -0.0002756347609)
(0 -0 -0.0003183208622)
(0 -0 -0.0003594831074)
(0 -0 -0.0003990751477)
(0 -0 -0.0004370765037)
(0 -0 -0.0004734860526)
(0 -0 -0.0005083172539)
(0 -0 -0.0005415947138)
(0 -0 -0.0005733517499)
(0 -0 -0.0006036286802)
(0 -0 -0.0006324716174)
(0 -0 -0.0006599316061)
(0 -0 -0.0006860639819)
(0 -0 -0.0007109278647)
(0 -0 -0.000734585722)
(0 -0 -0.0007571029566)
(0 -0 -0.0007785474906)
(0 -0 -0.0007989893355)
(0 -0 -0.0008185001437)
(0 -0 -0.0008371527459)
(0 -0 -0.0008550206767)
(0 -0 -0.0008721776945)
(0 -0 -0.0008886972957)
(0 -0 -0.0009046522168)
(0 -0 -0.0009201139565)
(0 -0 -0.0009351523071)
(0 -0 -0.0009498349035)
(0 -0 0.0001023313746)
(0 -0 0.0001032932478)
(0 -0 0.0001045540466)
(0 -0 0.0001066262954)
(0 -0 0.0001102608795)
(0 -0 0.0001160785062)
(0 -0 0.000124296108)
(0 -0 0.00013465766)
(0 -0 0.0001465273238)
(0 -0 0.0001590452727)
(0 -0 0.00017129256)
(0 -0 0.0001824310153)
(0 -0 0.0001917916193)
(0 -0 0.0001989080627)
(0 -0 0.0002035112132)
(0 -0 0.0002055015573)
(0 -0 0.0002049120061)
(0 -0 0.0002018696531)
(0 -0 0.0001965617591)
(0 -0 0.0001892084423)
(0 -0 0.0001800424477)
(0 -0 0.0001692952088)
(0 -0 0.000157187994)
(0 -0 0.0001439268828)
(0 -0 0.000129700423)
(0 -0 0.0001146790343)
(0 -0 9.901548855e-05)
(0 -0 8.284597289e-05)
(0 -0 6.629139972e-05)
(0 -0 4.945875591e-05)
(0 -0 3.244237571e-05)
(0 -0 1.532508164e-05)
(0 -0 -1.820823859e-06)
(0 -0 -1.893271145e-05)
(0 -0 -3.595690543e-05)
(0 -0 -5.284807038e-05)
(0 -0 -6.956868021e-05)
(0 -0 -8.608854403e-05)
(0 -0 -0.0001023843654)
(0 -0 -0.0001184393142)
(0 -0 -0.0001342425963)
(0 -0 -0.0001497890127)
(0 -0 -0.0001650785068)
(0 -0 -0.0001801156988)
(0 -0 -0.0001949094128)
(0 -0 -0.0002094721953)
(0 -0 -0.000223819827)
(0 -0 -0.0002379708368)
(0 -0 -0.0002519460153)
(0 -0 -0.0002657679401)
(0 -0 7.849707294e-05)
(0 -0 7.881560393e-05)
(0 -0 7.923261174e-05)
(0 -0 7.970283384e-05)
(0 -0 8.023304638e-05)
(0 -0 8.090588332e-05)
(0 -0 8.187160748e-05)
(0 -0 8.331107881e-05)
(0 -0 8.538579961e-05)
(0 -0 8.819534144e-05)
(0 -0 9.175536152e-05)
(0 -0 9.599822008e-05)
(0 -0 0.00010078975)
(0 -0 0.0001059532951)
(0 -0 0.0001112940575)
(0 -0 0.0001166196807)
(0 -0 0.0001217550753)
(0 -0 0.0001265511826)
(0 -0 0.0001308885869)
(0 -0 0.0001346774151)
(0 -0 0.0001378549274)
(0 -0 0.0001403819108)
(0 -0 0.0001422386686)
(0 -0 0.0001434211202)
(0 -0 0.0001439373061)
(0 -0 0.0001438044148)
(0 -0 0.0001430463435)
(0 -0 0.0001416917506)
(0 -0 0.0001397725295)
(0 -0 0.0001373226221)
(0 -0 0.000134377102)
(0 -0 0.0001309714628)
(0 -0 0.0001271410605)
(0 -0 0.000122920669)
(0 -0 0.0001183441159)
(0 -0 0.0001134439739)
(0 -0 0.0001082512916)
(0 -0 0.000102795359)
(0 -0 9.710350427e-05)
(0 -0 9.120092402e-05)
(0 -0 8.511055152e-05)
(0 -0 7.885296479e-05)
(0 -0 7.244633308e-05)
(0 -0 6.590639936e-05)
(0 -0 5.924649546e-05)
(0 -0 5.247758804e-05)
(0 -0 4.560835702e-05)
(0 -0 3.864530664e-05)
(0 -0 3.159290448e-05)
(0 -0 2.445374118e-05)
(0 -0 6.153673007e-05)
(0 -0 6.174545428e-05)
(0 -0 6.203598638e-05)
(0 -0 6.239600598e-05)
(0 -0 6.281092443e-05)
(0 -0 6.326197632e-05)
(0 -0 6.373201703e-05)
(0 -0 6.421582364e-05)
(0 -0 6.472650136e-05)
(0 -0 6.529387205e-05)
(0 -0 6.595732753e-05)
(0 -0 6.675728192e-05)
(0 -0 6.772769526e-05)
(0 -0 6.889081274e-05)
(0 -0 7.0254636e-05)
(0 -0 7.181299524e-05)
(0 -0 7.354749874e-05)
(0 -0 7.543045403e-05)
(0 -0 7.742802838e-05)
(0 -0 7.950318249e-05)
(0 -0 8.161812248e-05)
(0 -0 8.373616699e-05)
(0 -0 8.582303605e-05)
(0 -0 8.78476383e-05)
(0 -0 8.97824662e-05)
(0 -0 9.16037092e-05)
(0 -0 9.329117873e-05)
(0 -0 9.482811991e-05)
(0 -0 9.620096446e-05)
(0 -0 9.739905974e-05)
(0 -0 9.841439895e-05)
(0 -0 9.924136403e-05)
(0 -0 9.987648588e-05)
(0 -0 0.0001003182193)
(0 -0 0.0001005667355)
(0 -0 0.0001006237111)
(0 -0 0.0001004921214)
(0 -0 0.0001001760337)
(0 -0 9.968040052e-05)
(0 -0 9.90108615e-05)
(0 -0 9.817355408e-05)
(0 -0 9.717493568e-05)
(0 -0 9.602161876e-05)
(0 -0 9.472021848e-05)
(0 -0 9.327721071e-05)
(0 -0 9.169880321e-05)
(0 -0 8.999082833e-05)
(0 -0 8.815866534e-05)
(0 -0 8.620717498e-05)
(0 -0 8.41406619e-05)
(0 -0 4.851520559e-05)
(0 -0 4.866565322e-05)
(0 -0 4.887841765e-05)
(0 -0 4.914908503e-05)
(0 -0 4.94742587e-05)
(0 -0 4.984848169e-05)
(0 -0 5.026314143e-05)
(0 -0 5.070763545e-05)
(0 -0 5.117145494e-05)
(0 -0 5.164589372e-05)
(0 -0 5.212515824e-05)
(0 -0 5.260702814e-05)
(0 -0 5.309295517e-05)
(0 -0 5.358746092e-05)
(0 -0 5.409700345e-05)
(0 -0 5.46286779e-05)
(0 -0 5.518904947e-05)
(0 -0 5.578327447e-05)
(0 -0 5.641456462e-05)
(0 -0 5.708398703e-05)
(0 -0 5.77905364e-05)
(0 -0 5.853138473e-05)
(0 -0 5.930221516e-05)
(0 -0 6.009757074e-05)
(0 -0 6.091117803e-05)
(0 -0 6.173622885e-05)
(0 -0 6.256561463e-05)
(0 -0 6.339211891e-05)
(0 -0 6.420857492e-05)
(0 -0 6.5007991e-05)
(0 -0 6.578366393e-05)
(0 -0 6.652927611e-05)
(0 -0 6.723889765e-05)
(0 -0 6.790712751e-05)
(0 -0 6.852922999e-05)
(0 -0 6.910112406e-05)
(0 -0 6.961937479e-05)
(0 -0 7.008118433e-05)
(0 -0 7.048437499e-05)
(0 -0 7.082736398e-05)
(0 -0 7.110912826e-05)
(0 -0 7.132915982e-05)
(0 -0 7.148741663e-05)
(0 -0 7.158427437e-05)
(0 -0 7.162048086e-05)
(0 -0 7.159710804e-05)
(0 -0 7.151548476e-05)
(0 -0 7.137714333e-05)
(0 -0 7.118336799e-05)
(0 -0 7.093575149e-05)
(0 -0 3.835345129e-05)
(0 -0 3.846025896e-05)
(0 -0 3.861638705e-05)
(0 -0 3.881991839e-05)
(0 -0 3.906929064e-05)
(0 -0 3.93618733e-05)
(0 -0 3.969367665e-05)
(0 -0 4.005981135e-05)
(0 -0 4.045496642e-05)
(0 -0 4.087357052e-05)
(0 -0 4.130983561e-05)
(0 -0 4.175794514e-05)
(0 -0 4.221241555e-05)
(0 -0 4.26684802e-05)
(0 -0 4.312234882e-05)
(0 -0 4.357128644e-05)
(0 -0 4.401352874e-05)
(0 -0 4.444809045e-05)
(0 -0 4.487453738e-05)
(0 -0 4.529278036e-05)
(0 -0 4.570291932e-05)
(0 -0 4.610513546e-05)
(0 -0 4.649961401e-05)
(0 -0 4.688648206e-05)
(0 -0 4.72657553e-05)
(0 -0 4.763729424e-05)
(0 -0 4.80007697e-05)
(0 -0 4.835565073e-05)
(0 -0 4.87011533e-05)
(0 -0 4.903627118e-05)
(0 -0 4.935989366e-05)
(0 -0 4.96707964e-05)
(0 -0 4.996777915e-05)
(0 -0 5.02496183e-05)
(0 -0 5.051506343e-05)
(0 -0 5.076292848e-05)
(0 -0 5.099213966e-05)
(0 -0 5.120176116e-05)
(0 -0 5.139100922e-05)
(0 -0 5.15592646e-05)
(0 -0 5.170608604e-05)
(0 -0 5.183122187e-05)
(0 -0 5.193461674e-05)
(0 -0 5.201641824e-05)
(0 -0 5.207698997e-05)
(0 -0 5.211692304e-05)
(0 -0 5.213703155e-05)
(0 -0 5.21383168e-05)
(0 -0 5.21222648e-05)
(0 -0 5.20901508e-05)
(0 -0 3.018896578e-05)
(0 -0 3.026855414e-05)
(0 -0 3.039022353e-05)
(0 -0 3.055372245e-05)
(0 -0 3.075832954e-05)
(0 -0 3.100205826e-05)
(0 -0 3.128172438e-05)
(0 -0 3.159351602e-05)
(0 -0 3.193346105e-05)
(0 -0 3.229756536e-05)
(0 -0 3.268176151e-05)
(0 -0 3.308186104e-05)
(0 -0 3.349360567e-05)
(0 -0 3.391280355e-05)
(0 -0 3.433547824e-05)
(0 -0 3.475796454e-05)
(0 -0 3.517693174e-05)
(0 -0 3.558935932e-05)
(0 -0 3.599250887e-05)
(0 -0 3.638392109e-05)
(0 -0 3.676143908e-05)
(0 -0 3.712323964e-05)
(0 -0 3.746784944e-05)
(0 -0 3.779413158e-05)
(0 -0 3.810125556e-05)
(0 -0 3.838855908e-05)
(0 -0 3.865559336e-05)
(0 -0 3.890204635e-05)
(0 -0 3.912774538e-05)
(0 -0 3.93325883e-05)
(0 -0 3.951644895e-05)
(0 -0 3.967919395e-05)
(0 -0 3.982080337e-05)
(0 -0 3.994133565e-05)
(0 -0 4.004086233e-05)
(0 -0 4.011951957e-05)
(0 -0 4.017753984e-05)
(0 -0 4.0215262e-05)
(0 -0 4.023311243e-05)
(0 -0 4.023159422e-05)
(0 -0 4.021129545e-05)
(0 -0 4.017290339e-05)
(0 -0 4.011721915e-05)
(0 -0 4.004516848e-05)
(0 -0 3.995780036e-05)
(0 -0 3.98562739e-05)
(0 -0 3.974185852e-05)
(0 -0 3.961588016e-05)
(0 -0 3.948014762e-05)
(0 -0 3.933635542e-05)
(0 -0 2.347574106e-05)
(0 -0 2.353729193e-05)
(0 -0 2.363716633e-05)
(0 -0 2.377639209e-05)
(0 -0 2.395486974e-05)
(0 -0 2.417102963e-05)
(0 -0 2.442209453e-05)
(0 -0 2.470468218e-05)
(0 -0 2.501522823e-05)
(0 -0 2.535011013e-05)
(0 -0 2.570561942e-05)
(0 -0 2.607793069e-05)
(0 -0 2.646314446e-05)
(0 -0 2.685740147e-05)
(0 -0 2.725700692e-05)
(0 -0 2.765849628e-05)
(0 -0 2.805862325e-05)
(0 -0 2.845430571e-05)
(0 -0 2.884258484e-05)
(0 -0 2.922063132e-05)
(0 -0 2.958579583e-05)
(0 -0 2.993568149e-05)
(0 -0 3.02681337e-05)
(0 -0 3.058134799e-05)
(0 -0 3.087382677e-05)
(0 -0 3.114446471e-05)
(0 -0 3.139233655e-05)
(0 -0 3.161665916e-05)
(0 -0 3.181684102e-05)
(0 -0 3.199240477e-05)
(0 -0 3.214289273e-05)
(0 -0 3.226794528e-05)
(0 -0 3.236725267e-05)
(0 -0 3.244066336e-05)
(0 -0 3.248823553e-05)
(0 -0 3.251023367e-05)
(0 -0 3.250709853e-05)
(0 -0 3.247941176e-05)
(0 -0 3.242788432e-05)
(0 -0 3.235335185e-05)
(0 -0 3.225676896e-05)
(0 -0 3.213920917e-05)
(0 -0 3.200187042e-05)
(0 -0 3.184607865e-05)
(0 -0 3.167328481e-05)
(0 -0 3.148505784e-05)
(0 -0 3.128306911e-05)
(0 -0 3.106910204e-05)
(0 -0 3.084466746e-05)
(0 -0 3.06116107e-05)
(0 -0 1.785660433e-05)
(0 -0 1.790548178e-05)
(0 -0 1.799103589e-05)
(0 -0 1.811535177e-05)
(0 -0 1.8278812e-05)
(0 -0 1.848013386e-05)
(0 -0 1.871677952e-05)
(0 -0 1.898560067e-05)
(0 -0 1.928324196e-05)
(0 -0 1.960624563e-05)
(0 -0 1.995101907e-05)
(0 -0 2.031380128e-05)
(0 -0 2.069070456e-05)
(0 -0 2.107783552e-05)
(0 -0 2.147143178e-05)
(0 -0 2.186793801e-05)
(0 -0 2.226399343e-05)
(0 -0 2.265637312e-05)
(0 -0 2.304194595e-05)
(0 -0 2.341763258e-05)
(0 -0 2.378054156e-05)
(0 -0 2.412799999e-05)
(0 -0 2.445773264e-05)
(0 -0 2.476775906e-05)
(0 -0 2.505637588e-05)
(0 -0 2.532223222e-05)
(0 -0 2.556416265e-05)
(0 -0 2.578115612e-05)
(0 -0 2.597227991e-05)
(0 -0 2.613669921e-05)
(0 -0 2.627374267e-05)
(0 -0 2.638289352e-05)
(0 -0 2.646378077e-05)
(0 -0 2.65161993e-05)
(0 -0 2.654014194e-05)
(0 -0 2.653581056e-05)
(0 -0 2.650360106e-05)
(0 -0 2.644408382e-05)
(0 -0 2.635798874e-05)
(0 -0 2.624619342e-05)
(0 -0 2.610971761e-05)
(0 -0 2.594972521e-05)
(0 -0 2.576752964e-05)
(0 -0 2.556459611e-05)
(0 -0 2.534253703e-05)
(0 -0 2.510310141e-05)
(0 -0 2.484816251e-05)
(0 -0 2.45797078e-05)
(0 -0 2.429981533e-05)
(0 -0 2.401065186e-05)
(0 -0 1.308152666e-05)
(0 -0 1.312125364e-05)
(0 -0 1.319734779e-05)
(0 -0 1.33128169e-05)
(0 -0 1.346843918e-05)
(0 -0 1.366312714e-05)
(0 -0 1.389445957e-05)
(0 -0 1.415938011e-05)
(0 -0 1.445460526e-05)
(0 -0 1.477672192e-05)
(0 -0 1.512214912e-05)
(0 -0 1.548709654e-05)
(0 -0 1.586759942e-05)
(0 -0 1.625964218e-05)
(0 -0 1.66593041e-05)
(0 -0 1.706284839e-05)
(0 -0 1.746666773e-05)
(0 -0 1.786730272e-05)
(0 -0 1.826134897e-05)
(0 -0 1.864554794e-05)
(0 -0 1.90167743e-05)
(0 -0 1.9372137e-05)
(0 -0 1.970911999e-05)
(0 -0 2.002550736e-05)
(0 -0 2.031939478e-05)
(0 -0 2.058908129e-05)
(0 -0 2.083316737e-05)
(0 -0 2.105045444e-05)
(0 -0 2.123991491e-05)
(0 -0 2.140066036e-05)
(0 -0 2.15319138e-05)
(0 -0 2.163303116e-05)
(0 -0 2.170354168e-05)
(0 -0 2.174317842e-05)
(0 -0 2.175189673e-05)
(0 -0 2.172987916e-05)
(0 -0 2.167752507e-05)
(0 -0 2.159542965e-05)
(0 -0 2.148436406e-05)
(0 -0 2.134526421e-05)
(0 -0 2.117922781e-05)
(0 -0 2.098751654e-05)
(0 -0 2.077155985e-05)
(0 -0 2.053295643e-05)
(0 -0 2.027346891e-05)
(0 -0 1.999501157e-05)
(0 -0 1.969963627e-05)
(0 -0 1.938951964e-05)
(0 -0 1.906694677e-05)
(0 -0 1.873429077e-05)
(0 -0 8.971936061e-06)
(0 -0 9.004871045e-06)
(0 -0 9.074728792e-06)
(0 -0 9.185363094e-06)
(0 -0 9.33790216e-06)
(0 -0 9.531403966e-06)
(0 -0 9.763490408e-06)
(0 -0 1.003110418e-05)
(0 -0 1.033093577e-05)
(0 -0 1.065952632e-05)
(0 -0 1.10132294e-05)
(0 -0 1.138816374e-05)
(0 -0 1.178021918e-05)
(0 -0 1.218520572e-05)
(0 -0 1.259899596e-05)
(0 -0 1.301762439e-05)
(0 -0 1.343730211e-05)
(0 -0 1.385430861e-05)
(0 -0 1.426498762e-05)
(0 -0 1.466580507e-05)
(0 -0 1.505334159e-05)
(0 -0 1.542441782e-05)
(0 -0 1.577611383e-05)
(0 -0 1.610592564e-05)
(0 -0 1.641170525e-05)
(0 -0 1.669163441e-05)
(0 -0 1.694417459e-05)
(0 -0 1.716798856e-05)
(0 -0 1.736189605e-05)
(0 -0 1.752485724e-05)
(0 -0 1.765596941e-05)
(0 -0 1.775448778e-05)
(0 -0 1.781986227e-05)
(0 -0 1.78517715e-05)
(0 -0 1.785014439e-05)
(0 -0 1.781516343e-05)
(0 -0 1.774725054e-05)
(0 -0 1.764704421e-05)
(0 -0 1.751537936e-05)
(0 -0 1.735327612e-05)
(0 -0 1.716193692e-05)
(0 -0 1.69427478e-05)
(0 -0 1.669728038e-05)
(0 -0 1.642729149e-05)
(0 -0 1.613471691e-05)
(0 -0 1.582165795e-05)
(0 -0 1.54903657e-05)
(0 -0 1.514322761e-05)
(0 -0 1.47827505e-05)
(0 -0 1.4411534e-05)
(0 -0 5.398216303e-06)
(0 -0 5.425697783e-06)
(0 -0 5.491269371e-06)
(0 -0 5.599640447e-06)
(0 -0 5.752284324e-06)
(0 -0 5.948366419e-06)
(0 -0 6.185466395e-06)
(0 -0 6.460414165e-06)
(0 -0 6.769768e-06)
(0 -0 7.109947737e-06)
(0 -0 7.477197809e-06)
(0 -0 7.867520004e-06)
(0 -0 8.276681155e-06)
(0 -0 8.700293002e-06)
(0 -0 9.133992413e-06)
(0 -0 9.573557968e-06)
(0 -0 1.001495348e-05)
(0 -0 1.045418091e-05)
(0 -0 1.088728528e-05)
(0 -0 1.131032463e-05)
(0 -0 1.171954068e-05)
(0 -0 1.211143733e-05)
(0 -0 1.248287546e-05)
(0 -0 1.283111695e-05)
(0 -0 1.31538039e-05)
(0 -0 1.34489183e-05)
(0 -0 1.371472686e-05)
(0 -0 1.394971723e-05)
(0 -0 1.415255023e-05)
(0 -0 1.432203903e-05)
(0 -0 1.445715148e-05)
(0 -0 1.455703536e-05)
(0 -0 1.462105846e-05)
(0 -0 1.464884614e-05)
(0 -0 1.464030339e-05)
(0 -0 1.459561658e-05)
(0 -0 1.45152374e-05)
(0 -0 1.439985843e-05)
(0 -0 1.425039111e-05)
(0 -0 1.406795344e-05)
(0 -0 1.385386721e-05)
(0 -0 1.360965889e-05)
(0 -0 1.333705885e-05)
(0 -0 1.303799807e-05)
(0 -0 1.271460251e-05)
(0 -0 1.236918151e-05)
(0 -0 1.200420777e-05)
(0 -0 1.162229601e-05)
(0 -0 1.122618542e-05)
(0 -0 1.081871767e-05)
(0 -0 2.254845941e-06)
(0 -0 2.27888084e-06)
(0 -0 2.342936114e-06)
(0 -0 2.452345338e-06)
(0 -0 2.608748057e-06)
(0 -0 2.811222705e-06)
(0 -0 3.057125127e-06)
(0 -0 3.343082189e-06)
(0 -0 3.665582671e-06)
(0 -0 4.021079585e-06)
(0 -0 4.405834802e-06)
(0 -0 4.81574048e-06)
(0 -0 5.246340519e-06)
(0 -0 5.692969282e-06)
(0 -0 6.150970556e-06)
(0 -0 6.61584163e-06)
(0 -0 7.083190627e-06)
(0 -0 7.548726188e-06)
(0 -0 8.008189361e-06)
(0 -0 8.45736292e-06)
(0 -0 8.892179351e-06)
(0 -0 9.30884526e-06)
(0 -0 9.703939e-06)
(0 -0 1.00744576e-05)
(0 -0 1.041780675e-05)
(0 -0 1.073175314e-05)
(0 -0 1.101436304e-05)
(0 -0 1.126394041e-05)
(0 -0 1.147897897e-05)
(0 -0 1.165813999e-05)
(0 -0 1.180025773e-05)
(0 -0 1.190436918e-05)
(0 -0 1.196975756e-05)
(0 -0 1.199599296e-05)
(0 -0 1.1982956e-05)
(0 -0 1.193083894e-05)
(0 -0 1.184012808e-05)
(0 -0 1.171157773e-05)
(0 -0 1.154618569e-05)
(0 -0 1.134517818e-05)
(0 -0 1.1110006e-05)
(0 -0 1.084234622e-05)
(0 -0 1.054410053e-05)
(0 -0 1.021738833e-05)
(0 -0 9.864539499e-06)
(0 -0 9.488085457e-06)
(0 -0 9.090738711e-06)
(0 -0 8.67536232e-06)
(0 -0 8.244943514e-06)
(0 -0 7.802573617e-06)
(0 -0 -5.140812464e-07)
(0 -0 -4.932228997e-07)
(0 -0 -4.304679703e-07)
(0 -0 -3.197956942e-07)
(0 -0 -1.594360804e-07)
(0 -0 4.946637559e-08)
(0 -0 3.040321848e-07)
(0 -0 6.010450466e-07)
(0 -0 9.37546489e-07)
(0 -0 1.310489385e-06)
(0 -0 1.716114422e-06)
(0 -0 2.149724153e-06)
(0 -0 2.605997082e-06)
(0 -0 3.079576754e-06)
(0 -0 3.565425958e-06)
(0 -0 4.058858194e-06)
(0 -0 4.555364598e-06)
(0 -0 5.05043516e-06)
(0 -0 5.53950417e-06)
(0 -0 6.01801972e-06)
(0 -0 6.481583239e-06)
(0 -0 6.926091519e-06)
(0 -0 7.347838113e-06)
(0 -0 7.743557746e-06)
(0 -0 8.110415137e-06)
(0 -0 8.445955744e-06)
(0 -0 8.748041094e-06)
(0 -0 9.014785388e-06)
(0 -0 9.244507408e-06)
(0 -0 9.435708774e-06)
(0 -0 9.587082489e-06)
(0 -0 9.697547821e-06)
(0 -0 9.766299138e-06)
(0 -0 9.792850434e-06)
(0 -0 9.777059916e-06)
(0 -0 9.719129307e-06)
(0 -0 9.619583932e-06)
(0 -0 9.479245051e-06)
(0 -0 9.299204125e-06)
(0 -0 9.08080483e-06)
(0 -0 8.825635714e-06)
(0 -0 8.535531513e-06)
(0 -0 8.212574807e-06)
(0 -0 7.859090042e-06)
(0 -0 7.477630547e-06)
(0 -0 7.070963554e-06)
(0 -0 6.64205096e-06)
(0 -0 6.194021186e-06)
(0 -0 5.730137715e-06)
(0 -0 5.253770523e-06)
(0 -0 -2.960243471e-06)
(0 -0 -2.942579179e-06)
(0 -0 -2.88114739e-06)
(0 -0 -2.769143017e-06)
(0 -0 -2.60444662e-06)
(0 -0 -2.388062238e-06)
(0 -0 -2.12288126e-06)
(0 -0 -1.812230621e-06)
(0 -0 -1.459273502e-06)
(0 -0 -1.0673354e-06)
(0 -0 -6.404537173e-07)
(0 -0 -1.835099401e-07)
(0 -0 2.981246646e-07)
(0 -0 7.990590302e-07)
(0 -0 1.314117104e-06)
(0 -0 1.838293294e-06)
(0 -0 2.36660649e-06)
(0 -0 2.894021654e-06)
(0 -0 3.415485479e-06)
(0 -0 3.926036064e-06)
(0 -0 4.420933515e-06)
(0 -0 4.895776539e-06)
(0 -0 5.346584844e-06)
(0 -0 5.769835779e-06)
(0 -0 6.162453255e-06)
(0 -0 6.521759778e-06)
(0 -0 6.845410324e-06)
(0 -0 7.131326718e-06)
(0 -0 7.37764848e-06)
(0 -0 7.582712135e-06)
(0 -0 7.745063854e-06)
(0 -0 7.863500461e-06)
(0 -0 7.937124113e-06)
(0 -0 7.965390829e-06)
(0 -0 7.948136576e-06)
(0 -0 7.885575412e-06)
(0 -0 7.778276182e-06)
(0 -0 7.627131347e-06)
(0 -0 7.433329898e-06)
(0 -0 7.19833882e-06)
(0 -0 6.923893138e-06)
(0 -0 6.611994955e-06)
(0 -0 6.264918107e-06)
(0 -0 5.885207122e-06)
(0 -0 5.475661571e-06)
(0 -0 5.03931172e-06)
(0 -0 4.579394093e-06)
(0 -0 4.099322926e-06)
(0 -0 3.60265572e-06)
(0 -0 3.093059338e-06)
(0 -0 -5.142048888e-06)
(0 -0 -5.126273953e-06)
(0 -0 -5.064300435e-06)
(0 -0 -4.948764497e-06)
(0 -0 -4.777232984e-06)
(0 -0 -4.550422628e-06)
(0 -0 -4.271152294e-06)
(0 -0 -3.943139125e-06)
(0 -0 -3.570348898e-06)
(0 -0 -3.156901858e-06)
(0 -0 -2.70719125e-06)
(0 -0 -2.225966937e-06)
(0 -0 -1.718290222e-06)
(0 -0 -1.189399629e-06)
(0 -0 -6.445865422e-07)
(0 -0 -8.91479751e-08)
(0 -0 4.715917699e-07)
(0 -0 1.032248094e-06)
(0 -0 1.587390901e-06)
(0 -0 2.13163409e-06)
(0 -0 2.659783428e-06)
(0 -0 3.166995958e-06)
(0 -0 3.648900209e-06)
(0 -0 4.101647388e-06)
(0 -0 4.521893856e-06)
(0 -0 4.90673683e-06)
(0 -0 5.253631655e-06)
(0 -0 5.560314633e-06)
(0 -0 5.824748961e-06)
(0 -0 6.045105317e-06)
(0 -0 6.21978042e-06)
(0 -0 6.347445661e-06)
(0 -0 6.427108174e-06)
(0 -0 6.4581635e-06)
(0 -0 6.440423957e-06)
(0 -0 6.374116896e-06)
(0 -0 6.259858239e-06)
(0 -0 6.098615774e-06)
(0 -0 5.891678481e-06)
(0 -0 5.640639389e-06)
(0 -0 5.347389009e-06)
(0 -0 5.014115098e-06)
(0 -0 4.643305727e-06)
(0 -0 4.237747202e-06)
(0 -0 3.80050689e-06)
(0 -0 3.334904182e-06)
(0 -0 2.844479937e-06)
(0 -0 2.332961103e-06)
(0 -0 1.804215911e-06)
(0 -0 1.262208741e-06)
(0 -0 -7.083101315e-06)
(0 -0 -7.069127349e-06)
(0 -0 -7.006478483e-06)
(0 -0 -6.887216298e-06)
(0 -0 -6.708713482e-06)
(0 -0 -6.471619523e-06)
(0 -0 -6.178755906e-06)
(0 -0 -5.833891713e-06)
(0 -0 -5.441104995e-06)
(0 -0 -5.004694429e-06)
(0 -0 -4.529308448e-06)
(0 -0 -4.020059139e-06)
(0 -0 -3.482484251e-06)
(0 -0 -2.9223441e-06)
(0 -0 -2.345375295e-06)
(0 -0 -1.757154404e-06)
(0 -0 -1.163127865e-06)
(0 -0 -5.687380013e-07)
(0 -0 2.04828687e-08)
(0 -0 5.989361006e-07)
(0 -0 1.161099109e-06)
(0 -0 1.70172219e-06)
(0 -0 2.21600115e-06)
(0 -0 2.699675101e-06)
(0 -0 3.149038838e-06)
(0 -0 3.560888772e-06)
(0 -0 3.932434093e-06)
(0 -0 4.261205004e-06)
(0 -0 4.54498432e-06)
(0 -0 4.781779997e-06)
(0 -0 4.969843327e-06)
(0 -0 5.107722522e-06)
(0 -0 5.194330228e-06)
(0 -0 5.229001257e-06)
(0 -0 5.211523547e-06)
(0 -0 5.142136662e-06)
(0 -0 5.021503441e-06)
(0 -0 4.850669584e-06)
(0 -0 4.631029659e-06)
(0 -0 4.364311275e-06)
(0 -0 4.05257457e-06)
(0 -0 3.698215354e-06)
(0 -0 3.303963995e-06)
(0 -0 2.872877079e-06)
(0 -0 2.408316629e-06)
(0 -0 1.91391423e-06)
(0 -0 1.393529107e-06)
(0 -0 8.512061895e-07)
(0 -0 2.911278889e-07)
(0 -0 -2.824408442e-07)
(0 -0 -8.805288565e-06)
(0 -0 -8.792870715e-06)
(0 -0 -8.729240781e-06)
(0 -0 -8.605867856e-06)
(0 -0 -8.419942223e-06)
(0 -0 -8.172105367e-06)
(0 -0 -7.865271341e-06)
(0 -0 -7.503319909e-06)
(0 -0 -7.090429302e-06)
(0 -0 -6.631005147e-06)
(0 -0 -6.129839017e-06)
(0 -0 -5.592246044e-06)
(0 -0 -5.024043336e-06)
(0 -0 -4.431355379e-06)
(0 -0 -3.820361529e-06)
(0 -0 -3.197127244e-06)
(0 -0 -2.567575673e-06)
(0 -0 -1.93755032e-06)
(0 -0 -1.312874197e-06)
(0 -0 -6.993406025e-07)
(0 -0 -1.026266673e-07)
(0 -0 4.718379407e-07)
(0 -0 1.019002451e-06)
(0 -0 1.534291074e-06)
(0 -0 2.013644924e-06)
(0 -0 2.45350784e-06)
(0 -0 2.850768998e-06)
(0 -0 3.202686074e-06)
(0 -0 3.506817203e-06)
(0 -0 3.760986072e-06)
(0 -0 3.963292138e-06)
(0 -0 4.112160749e-06)
(0 -0 4.206412476e-06)
(0 -0 4.245324544e-06)
(0 -0 4.228663228e-06)
(0 -0 4.156680961e-06)
(0 -0 4.030086792e-06)
(0 -0 3.850006636e-06)
(0 -0 3.617950559e-06)
(0 -0 3.335798803e-06)
(0 -0 3.005804467e-06)
(0 -0 2.630596715e-06)
(0 -0 2.213172117e-06)
(0 -0 1.756877436e-06)
(0 -0 1.26538533e-06)
(0 -0 7.426538835e-07)
(0 -0 1.928729558e-07)
(0 -0 -3.795873957e-07)
(0 -0 -9.702280033e-07)
(0 -0 -1.574479149e-06)
(0 -0 -1.032650345e-05)
(0 -0 -1.031540724e-05)
(0 -0 -1.025051256e-05)
(0 -0 -1.012269244e-05)
(0 -0 -9.928951473e-06)
(0 -0 -9.669923788e-06)
(0 -0 -9.348634586e-06)
(0 -0 -8.969111047e-06)
(0 -0 -8.535677468e-06)
(0 -0 -8.052892769e-06)
(0 -0 -7.525726945e-06)
(0 -0 -6.959701355e-06)
(0 -0 -6.360856242e-06)
(0 -0 -5.735554954e-06)
(0 -0 -5.090252313e-06)
(0 -0 -4.431357107e-06)
(0 -0 -3.765218926e-06)
(0 -0 -3.098167909e-06)
(0 -0 -2.436517549e-06)
(0 -0 -1.786491459e-06)
(0 -0 -1.154097354e-06)
(0 -0 -5.449990799e-07)
(0 -0 3.557419363e-08)
(0 -0 5.82869928e-07)
(0 -0 1.092613592e-06)
(0 -0 1.560983197e-06)
(0 -0 1.984568441e-06)
(0 -0 2.360324599e-06)
(0 -0 2.685533363e-06)
(0 -0 2.957784984e-06)
(0 -0 3.174993074e-06)
(0 -0 3.335442805e-06)
(0 -0 3.437857769e-06)
(0 -0 3.481459567e-06)
(0 -0 3.465997111e-06)
(0 -0 3.391739787e-06)
(0 -0 3.259447151e-06)
(0 -0 3.070333439e-06)
(0 -0 2.826039619e-06)
(0 -0 2.528619603e-06)
(0 -0 2.180540255e-06)
(0 -0 1.784682132e-06)
(0 -0 1.344325786e-06)
(0 -0 8.631242971e-07)
(0 -0 3.450697811e-07)
(0 -0 -2.055487261e-07)
(0 -0 -7.841989938e-07)
(0 -0 -1.386162332e-06)
(0 -0 -2.006591883e-06)
(0 -0 -2.640579068e-06)
(0 -0 -1.166016981e-05)
(0 -0 -1.165021721e-05)
(0 -0 -1.158385412e-05)
(0 -0 -1.145136551e-05)
(0 -0 -1.124957123e-05)
(0 -0 -1.097909301e-05)
(0 -0 -1.064306541e-05)
(0 -0 -1.024566837e-05)
(0 -0 -9.791382421e-06)
(0 -0 -9.284932339e-06)
(0 -0 -8.731483636e-06)
(0 -0 -8.136789361e-06)
(0 -0 -7.507143976e-06)
(0 -0 -6.849168795e-06)
(0 -0 -6.169574013e-06)
(0 -0 -5.475035408e-06)
(0 -0 -4.772209743e-06)
(0 -0 -4.067799998e-06)
(0 -0 -3.368560787e-06)
(0 -0 -2.681194649e-06)
(0 -0 -2.012171056e-06)
(0 -0 -1.367544246e-06)
(0 -0 -7.528365297e-07)
(0 -0 -1.730110126e-07)
(0 -0 3.674855517e-07)
(0 -0 8.646494891e-07)
(0 -0 1.314851363e-06)
(0 -0 1.714789976e-06)
(0 -0 2.061474658e-06)
(0 -0 2.35223659e-06)
(0 -0 2.584768378e-06)
(0 -0 2.757186318e-06)
(0 -0 2.868100437e-06)
(0 -0 2.91667009e-06)
(0 -0 2.902626719e-06)
(0 -0 2.82626153e-06)
(0 -0 2.688393642e-06)
(0 -0 2.490338306e-06)
(0 -0 2.233884012e-06)
(0 -0 1.921277052e-06)
(0 -0 1.555212875e-06)
(0 -0 1.138831163e-06)
(0 -0 6.757028918e-07)
(0 -0 1.697991813e-07)
(0 -0 -3.745505578e-07)
(0 -0 -9.527016406e-07)
(0 -0 -1.559745591e-06)
(0 -0 -2.190572696e-06)
(0 -0 -2.839942593e-06)
(0 -0 -3.502566395e-06)
(0 -0 -1.281639932e-05)
(0 -0 -1.280744911e-05)
(0 -0 -1.273946717e-05)
(0 -0 -1.260216949e-05)
(0 -0 -1.239219475e-05)
(0 -0 -1.211014974e-05)
(0 -0 -1.175927636e-05)
(0 -0 -1.134390751e-05)
(0 -0 -1.086868036e-05)
(0 -0 -1.033848335e-05)
(0 -0 -9.758674034e-06)
(0 -0 -9.135236669e-06)
(0 -0 -8.474729879e-06)
(0 -0 -7.784055646e-06)
(0 -0 -7.070206529e-06)
(0 -0 -6.340137557e-06)
(0 -0 -5.600789341e-06)
(0 -0 -4.859173488e-06)
(0 -0 -4.122399334e-06)
(0 -0 -3.397576927e-06)
(0 -0 -2.69161739e-06)
(0 -0 -2.011009829e-06)
(0 -0 -1.361659924e-06)
(0 -0 -7.488368588e-07)
(0 -0 -1.772213845e-07)
(0 -0 3.489905159e-07)
(0 -0 8.259812218e-07)
(0 -0 1.250239383e-06)
(0 -0 1.618538006e-06)
(0 -0 1.927962666e-06)
(0 -0 2.175978808e-06)
(0 -0 2.360518429e-06)
(0 -0 2.480061861e-06)
(0 -0 2.533693536e-06)
(0 -0 2.521121105e-06)
(0 -0 2.442660237e-06)
(0 -0 2.299199669e-06)
(0 -0 2.09216683e-06)
(0 -0 1.823505816e-06)
(0 -0 1.495662961e-06)
(0 -0 1.11157287e-06)
(0 -0 6.746459189e-07)
(0 -0 1.887526143e-07)
(0 -0 -3.418084604e-07)
(0 -0 -9.123526479e-07)
(0 -0 -1.517849149e-06)
(0 -0 -2.152963509e-06)
(0 -0 -2.812109707e-06)
(0 -0 -3.489539267e-06)
(0 -0 -4.179484918e-06)
(0 -0 -1.38029024e-05)
(0 -0 -1.379484286e-05)
(0 -0 -1.37251373e-05)
(0 -0 -1.358295975e-05)
(0 -0 -1.336477199e-05)
(0 -0 -1.307116413e-05)
(0 -0 -1.27054837e-05)
(0 -0 -1.22722158e-05)
(0 -0 -1.177615303e-05)
(0 -0 -1.122234435e-05)
(0 -0 -1.061633321e-05)
(0 -0 -9.96432698e-06)
(0 -0 -9.273141609e-06)
(0 -0 -8.549959406e-06)
(0 -0 -7.802065191e-06)
(0 -0 -7.036710792e-06)
(0 -0 -6.261135433e-06)
(0 -0 -5.482655571e-06)
(0 -0 -4.708702857e-06)
(0 -0 -3.946738878e-06)
(0 -0 -3.204057847e-06)
(0 -0 -2.487549787e-06)
(0 -0 -1.803511703e-06)
(0 -0 -1.157565074e-06)
(0 -0 -5.546869775e-07)
(0 -0 6.822459473e-10)
(0 -0 5.045112065e-07)
(0 -0 9.530798791e-07)
(0 -0 1.342942808e-06)
(0 -0 1.670960524e-06)
(0 -0 1.93438466e-06)
(0 -0 2.130965785e-06)
(0 -0 2.259049188e-06)
(0 -0 2.317635469e-06)
(0 -0 2.306400635e-06)
(0 -0 2.225681872e-06)
(0 -0 2.076440759e-06)
(0 -0 1.860222534e-06)
(0 -0 1.579129071e-06)
(0 -0 1.235806706e-06)
(0 -0 8.334348212e-07)
(0 -0 3.757092114e-07)
(0 -0 -1.331805026e-07)
(0 -0 -6.88586709e-07)
(0 -0 -1.285444677e-06)
(0 -0 -1.918332561e-06)
(0 -0 -2.581476023e-06)
(0 -0 -3.268792246e-06)
(0 -0 -3.973954352e-06)
(0 -0 -4.690442524e-06)
(0 -0 -1.462570178e-05)
(0 -0 -1.461844141e-05)
(0 -0 -1.454694792e-05)
(0 -0 -1.439988276e-05)
(0 -0 -1.417353632e-05)
(0 -0 -1.386848177e-05)
(0 -0 -1.348817038e-05)
(0 -0 -1.303723722e-05)
(0 -0 -1.252062716e-05)
(0 -0 -1.194354581e-05)