#               x              1.24              1.34              1.44
#               y                 1                 1                 1
#               z                 1                 1                 1
#            Time
       0.11999904                 8.361816761e-05 1.39167087e-05 -1.835368108e-12                 0.0001572139697 -5.493893488e-06 -3.000446488e-13                 0.0001905447904 -1.904068202e-06 -8.562642739e-13
       0.26399616                 8.564336153e-05 1.359355327e-05 -6.542281433e-12                 0.0001573782982 -5.478131081e-06 -3.4933544e-12                 0.0001904650358 -1.922557951e-06 -4.73050347e-12
     0.4367897182                 9.325155377e-05 1.368385691e-05 -3.236365701e-12                 0.0001572928621 -5.474253111e-06 3.004005605e-12                 0.0001905005297 -1.911759008e-06 1.805980913e-12
     0.6441376884                 9.36329649e-05 1.373249367e-05 -6.217261952e-12                 0.0001571199333 -5.507975553e-06 4.144135275e-12                 0.0001904024322 -1.925666346e-06 2.550047089e-12
     0.8929521569                 9.583925134e-05 1.379806691e-05 -8.890902212e-12                 0.0001570132028 -5.511072e-06 4.491500266e-12                 0.0001903853155 -1.924697445e-06 2.595994126e-12
       1.19152209                 9.684428946e-05 1.382586697e-05 -1.155987398e-11                 0.0001569061038 -5.529437986e-06 5.203923672e-12                 0.0001903324858 -1.931337885e-06 2.976075613e-12
       1.54979959                 9.810744429e-05 1.385591362e-05 -1.504206203e-11                 0.0001568216558 -5.534953999e-06 5.986319105e-12                 0.0001903068864 -1.93302589e-06 3.52799975e-12
      1.979729509                 9.894947136e-05 1.388059704e-05 -1.85749598e-11                 0.0001567373279 -5.54568096e-06 7.075649153e-12                 0.0001902719614 -1.937055012e-06 4.290130176e-12
      2.495623228                 9.977328473e-05 1.390045722e-05 -2.306016136e-11                 0.000156668763 -5.551717228e-06 7.994708509e-12                 0.0001902468559 -1.939438501e-06 4.920022552e-12
      3.114663747                 0.0001003959045 1.392068768e-05 -2.808689547e-11                 0.00015659656 -5.559504496e-06 9.28380437e-12                 0.000190219591 -1.942582028e-06 5.858383934e-12
       3.85748477                 0.0001009433624 1.393757564e-05 -3.405866148e-11                 0.0001565315647 -5.565887914e-06 1.061624014e-11                 0.000190195732 -1.945256555e-06 6.780261126e-12
      4.748803764                 0.0001013653254 1.395478001e-05 -4.114534693e-11                 0.0001564614114 -5.57322353e-06 1.211124856e-11                 0.0001901710382 -1.948295541e-06 7.80838103e-12
      5.818272114                 0.0001017030299 1.397017267e-05 -4.952031579e-11                 0.0001563904223 -5.58067519e-06 1.38227698e-11                 0.0001901467424 -1.951366478e-06 8.976440845e-12
       7.10155174                 0.0001019415142 1.398544825e-05 -5.933255105e-11                 0.0001563111959 -5.58925889e-06 1.589734645e-11                 0.0001901209412 -1.954812411e-06 1.041996565e-11
      8.641289559                 0.0001020922291 1.399973961e-05 -7.091570015e-11                 0.0001562236371 -5.59896928e-06 1.827463188e-11                 0.0001900933442 -1.958611246e-06 1.205628515e-11
      10.48880411                 0.0001021469397 1.401378925e-05 -8.449608325e-11                 0.0001561222031 -5.610461966e-06 2.10729577e-11                 0.0001900625527 -1.962975557e-06 1.399229056e-11
      12.70573958                 0.0001021033388 1.402736317e-05 -1.002701946e-10                 0.0001560037828 -5.624125815e-06 2.461631517e-11                 0.0001900274797 -1.968021318e-06 1.655669649e-11
      15.36547174                 0.0001019502267 1.404086803e-05 -1.188632659e-10                 0.0001558623538 -5.640659754e-06 2.849186452e-11                 0.0001899864344 -1.973969672e-06 1.927634896e-11
      18.55647031                 0.0001016750083 1.405439873e-05 -1.406037393e-10                 0.000155691801 -5.66080227e-06 3.296459868e-11                 0.0001899374696 -1.981047465e-06 2.241932473e-11
      22.38517899                 0.0001012581558 1.406834085e-05 -1.659629375e-10                 0.0001554835217 -5.685566517e-06 3.814873616e-11                 0.0001898779718 -1.989565313e-06 2.608239883e-11
       26.9789243                 0.0001006747873 1.408304439e-05 -1.954781108e-10                 0.0001552271309 -5.716201018e-06 4.420247575e-11                 0.0001898046398 -1.999898047e-06 3.040205047e-11
       32.4888807                 9.989185219e-05 1.409905091e-05 -2.298551206e-10                 0.0001549090726 -5.754332816e-06 5.116222269e-11                 0.0001897131697 -2.012525338e-06 3.539146407e-11
      39.09863608                 9.886635305e-05 1.411698192e-05 -2.697494449e-10                 0.0001545119105 -5.802081094e-06 5.928184235e-11                 0.000189597927 -2.028058656e-06 4.127389361e-11
      47.02929003                 9.754222674e-05 1.413757258e-05 -3.151947551e-10                 0.0001540127257 -5.862242479e-06 7.013741433e-11                 0.0001894514546 -2.047288784e-06 4.969607793e-11
       56.5445584                 9.584790821e-05 1.416152883e-05 -3.684759793e-10                 0.0001533818988 -5.938487011e-06 8.181467134e-11                 0.0001892641117 -2.071228433e-06 5.844146423e-11
      67.96069553                 9.369133728e-05 1.418928216e-05 -4.295088981e-10                 0.0001525802897 -6.035706812e-06 9.553710784e-11                 0.0001890232179 -2.10119512e-06 6.879504022e-11
      81.64119044                 9.09608068e-05 1.422045388e-05 -4.982988368e-10                 0.0001515591745 -6.160151668e-06 1.114662232e-10                 0.0001887133684 -2.13880399e-06 8.090749172e-11
      98.03517194                 8.751695201e-05 1.425257165e-05 -5.746666442e-10                 0.0001502554552 -6.320124602e-06 1.298100519e-10                 0.0001883153552 -2.186114825e-06 9.492888649e-11
      117.6819276                 8.319437035e-05 1.427861554e-05 -6.583637509e-10                 0.0001485895572 -6.526351196e-06 1.508426724e-10                 0.0001878061804 -2.245686428e-06 1.109301943e-10
      141.2112563                 7.780810339e-05 1.428296818e-05 -7.468823356e-10                 0.0001464622465 -6.792534194e-06 1.786038898e-10                 0.0001871592696 -2.320639043e-06 1.330330822e-10
      169.3792241                 7.115374018e-05 1.423461135e-05 -8.416207498e-10                 0.0001437429612 -7.136766371e-06 2.072843246e-10                 0.0001863421759 -2.415008379e-06 1.546985343e-10
      203.1614261                 6.299416925e-05 1.407950346e-05 -9.376268119e-10                 0.0001402471136 -7.584428289e-06 2.399348844e-10                 0.00018531275 -2.534411551e-06 1.796340373e-10
      243.6442301                 5.312010941e-05 1.371322133e-05 -1.02370723e-09                 0.0001357092469 -8.170564387e-06 2.737451431e-10                 0.0001840142485 -2.686825918e-06 2.073930336e-10
      292.1833136                 4.137398277e-05 1.289177384e-05 -1.042579197e-09                 0.000129662145 -8.949824764e-06 2.834969365e-10                 0.0001823385467 -2.886649395e-06 2.27633716e-10
      350.3139524                 2.788914362e-05 1.143510347e-05 -1.016927943e-09                 0.0001216147741 -9.967453126e-06 2.776472444e-10                 0.0001801902142 -3.149619975e-06 2.495985665e-10
      419.7361542                 1.210852588e-05 9.290029599e-06 -9.088882158e-10                 0.0001106548925 -1.130425038e-05 2.595704164e-10                 0.0001773763394 -3.506112659e-06 2.80481854e-10
      502.3246356                 -6.229851992e-06 6.154263323e-06 -5.875553534e-10                 9.601348204e-05 -1.295275985e-05 2.288838134e-10                 0.0001737277436 -3.992167153e-06 3.295144543e-10
       601.258754                 -2.535998787e-05 2.341120421e-06 -3.845150368e-10                 7.645414699e-05 -1.48562247e-05 1.35134862e-10                 0.0001688426849 -4.681317533e-06 4.141154348e-10
      718.7430196                 -4.190972053e-05 -2.118857948e-06 -6.098257651e-10                 5.111060501e-05 -1.679926463e-05 -2.963604267e-10                 0.0001620812101 -5.681339149e-06 4.720139803e-10
      855.2320928                 -5.540493119e-05 -6.17321591e-06 -1.431705459e-09                 2.099389038e-05 -1.826810296e-05 -1.012565468e-09                 0.0001527109068 -7.087505662e-06 5.371227811e-10
      1010.228159                 -6.569058506e-05 -9.777625293e-06 -1.909733068e-09                 -1.192228032e-05 -1.88623026e-05 -2.154150971e-09                 0.0001398387248 -8.944391867e-06 4.788722136e-10
      1183.108387                 -7.305052146e-05 -1.244388746e-05 -2.405617657e-09                 -4.433957243e-05 -1.819539645e-05 -3.431636821e-09                 0.0001228270435 -1.116770707e-05 2.649999673e-10
      1374.779944                 -7.811489516e-05 -1.390575843e-05 -2.59921585e-09                 -7.372832518e-05 -1.62777795e-05 -4.459249765e-09                 0.0001012461746 -1.357210601e-05 -1.798840364e-10
      1585.151164                 -8.203970159e-05 -1.470043813e-05 -2.508280725e-09                 -9.768608609e-05 -1.36097057e-05 -4.810304096e-09                 7.523573824e-05 -1.587421377e-05 -9.058288479e-10
      1795.522385                 -8.475101819e-05 -1.485694888e-05 -2.370740148e-09                 -0.000114647974 -1.088557815e-05 -4.195399569e-09                 4.800242794e-05 -1.762441129e-05 -1.815189146e-09
      2011.429691                 -8.68134769e-05 -1.472656547e-05 -1.751494301e-09                 -0.0001266246447 -8.328486661e-06 -3.310986704e-09                 2.008402099e-05 -1.870954507e-05 -3.001319491e-09
      2227.336997                 -8.830357785e-05 -1.446586756e-05 -1.250148806e-09                 -0.0001346507699 -6.001310029e-06 -2.238906025e-09                 -6.481444801e-06 -1.903260043e-05 -4.431076331e-09
      2443.244302                 -8.916445728e-05 -1.414943799e-05 -8.025953965e-10                 -0.0001399434195 -4.048520412e-06 -1.498259403e-09                 -3.091223651e-05 -1.854998794e-05 -5.699728406e-09
      2659.151608                 -8.94656635e-05 -1.386170896e-05 -3.766689757e-10                 -0.0001433642466 -2.464511082e-06 -1.363819644e-09                 -5.254923284e-05 -1.742887254e-05 -6.947942854e-09
      2881.601559                 -8.925430951e-05 -1.361970031e-05 -3.971177655e-12                 -0.0001454203753 -1.215241176e-06 -1.784521782e-09                 -7.160715652e-05 -1.584729052e-05 -8.374435052e-09
       3104.05151                 -8.855018089e-05 -1.343640516e-05 4.139005992e-10                 -0.0001465673921 -2.489865632e-07 -2.681510022e-09                 -8.75240617e-05 -1.407267343e-05 -9.898903827e-09
      3326.501462                 -8.745507557e-05 -1.329633519e-05 9.869617975e-10                 -0.0001471641471 5.999512269e-07 -3.989883255e-09                 -0.0001006265632 -1.228572917e-05 -1.173628543e-08
      3548.951413                 -8.609742933e-05 -1.318851351e-05 1.746915634e-09                 -0.0001474458084 1.260248594e-06 -5.570865459e-09                 -0.0001114133443 -1.061592819e-05 -1.379892954e-08
      3771.401364                 -8.458049281e-05 -1.310537965e-05 2.840876959e-09                 -0.0001474702494 1.819690309e-06 -7.539099273e-09                 -0.0001203237006 -9.107495736e-06 -1.615221913e-08
      3993.851316                 -8.298222531e-05 -1.303974904e-05 4.193688901e-09                 -0.0001472895894 2.29998159e-06 -9.702282986e-09                 -0.0001277269896 -7.781709478e-06 -1.870582379e-08
      4216.301267                 -8.134167744e-05 -1.298083095e-05 5.825887944e-09                 -0.0001469276573 2.709288304e-06 -1.198962602e-08                 -0.0001339147961 -6.635166383e-06 -2.13889762e-08
      4438.751218                 -7.970257628e-05 -1.292592754e-05 7.623032403e-09                 -0.0001464857085 3.083840856e-06 -1.423988573e-08                 -0.000139136642 -5.637997443e-06 -2.407950314e-08
      4661.201169                 -7.808284664e-05 -1.287082886e-05 9.655465097e-09                 -0.0001460002974 3.426274831e-06 -1.661565302e-08                 -0.0001435802298 -4.769581555e-06 -2.686167029e-08
      4883.651121                 -7.649514364e-05 -1.281178705e-05 1.174908893e-08                 -0.0001454557346 3.729529577e-06 -1.892156637e-08                 -0.0001474017833 -4.013532086e-06 -2.951004468e-08
      5116.212433                 -7.487757349e-05 -1.273843827e-05 1.404596492e-08                 -0.0001448033981 4.009745464e-06 -2.129323924e-08                 -0.000150851725 -3.32996944e-06 -3.222151412e-08
      5348.773746                 -7.33374201e-05 -1.266733794e-05 1.639510324e-08                 -0.0001440952338 4.27475251e-06 -2.353186413e-08                 -0.0001538147119 -2.724704838e-06 -3.477808998e-08
      5581.335059                 -7.187351792e-05 -1.259689524e-05 1.865423944e-08                 -0.0001433430928 4.522377036e-06 -2.556466156e-08                 -0.0001563813603 -2.187135514e-06 -3.70547783e-08
      5813.896371                 -7.048117771e-05 -1.251825099e-05 2.090066503e-08                 -0.0001425398453 4.745250679e-06 -2.746132072e-08                 -0.0001586021699 -1.714457054e-06 -3.91179592e-08
      6046.457684                 -6.915369167e-05 -1.242796764e-05 2.318056783e-08                 -0.0001416893553 4.950431294e-06 -2.928910272e-08                 -0.0001605198467 -1.290476415e-06 -4.102779623e-08
      6279.018997                 -6.788686678e-05 -1.233180576e-05 2.549326794e-08                 -0.0001408126435 5.141087495e-06 -3.104714535e-08                 -0.0001621799885 -9.014177551e-07 -4.277350981e-08
       6511.58031                 -6.668424112e-05 -1.223403904e-05 2.779287612e-08                 -0.0001399176077 5.312887367e-06 -3.267662763e-08                 -0.000163625015 -5.513828953e-07 -4.425616443e-08
      6744.141622                 -6.554004536e-05 -1.213596233e-05 3.013771719e-08                 -0.0001390126854 5.468471401e-06 -3.42830684e-08                 -0.0001648753623 -2.299734588e-07 -4.557910821e-08
      6976.702935                 -6.444978892e-05 -1.203868849e-05 3.250053938e-08                 -0.0001381112165 5.612123035e-06 -3.584762651e-08                 -0.000165939092 3.757429019e-08 -4.670861758e-08
      7209.264248                 -6.340511616e-05 -1.194211311e-05 3.485113887e-08                 -0.0001372099196 5.744778309e-06 -3.734374637e-08                 -0.0001668507706 2.684652401e-07 -4.762610511e-08
       7441.82556                 -6.23929642e-05 -1.184571038e-05 3.711283989e-08                 -0.0001362984373 5.867137289e-06 -3.873768975e-08                 -0.0001676491065 4.66646756e-07 -4.834046219e-08
      7674.386873                 -6.141147726e-05 -1.174939641e-05 3.945492972e-08                 -0.0001353747735 5.979590867e-06 -4.013995193e-08                 -0.0001683385424 6.764585677e-07 -4.898669854e-08
      7906.948186                 -6.045978882e-05 -1.165317538e-05 4.170839005e-08                 -0.0001344403149 6.083126741e-06 -4.140242309e-08                 -0.0001689059052 8.699261999e-07 -4.943462647e-08
      8139.509498                 -5.95373575e-05 -1.155673671e-05 4.391409017e-08                 -0.0001334901663 6.17709472e-06 -4.25762283e-08                 -0.000169353171 1.035733305e-06 -4.967918047e-08
      8372.070811                 -5.864348485e-05 -1.146038432e-05 4.627983093e-08                 -0.0001325266406 6.261787906e-06 -4.378684875e-08                 -0.0001696864634 1.189035451e-06 -4.986539129e-08
      8604.632124                 -5.777663772e-05 -1.136440673e-05 4.867889363e-08                 -0.0001315529698 6.337875933e-06 -4.494251615e-08                 -0.0001699241458 1.34422799e-06 -4.996567198e-08
      8837.193437                 -5.693477441e-05 -1.126892942e-05 5.115313709e-08                 -0.0001305715386 6.406511805e-06 -4.60485723e-08                 -0.0001700768405 1.491790973e-06 -4.987338319e-08
      9069.754749                 -5.611486789e-05 -1.117382958e-05 5.376968981e-08                 -0.0001295810373 6.468000639e-06 -4.717435467e-08                 -0.0001701390188 1.624935821e-06 -4.97316381e-08
      9302.316062                 -5.531501216e-05 -1.107912295e-05 5.652087125e-08                 -0.0001285839239 6.523110054e-06 -4.828456838e-08                 -0.0001701187066 1.74879813e-06 -4.944065462e-08
      9534.877375                 -5.453261846e-05 -1.098460642e-05 5.943270177e-08                 -0.000127579203 6.572420258e-06 -4.940837598e-08                 -0.000170025663 1.870483651e-06 -4.905974045e-08
      9767.438687                 -5.376685324e-05 -1.08903143e-05 6.249718847e-08                 -0.0001265683115 6.616526417e-06 -5.054729058e-08                 -0.0001698691457 1.988092889e-06 -4.859558974e-08
            10000                 -5.301577874e-05 -1.079608282e-05 6.577466029e-08                 -0.000125549856 6.655745489e-06 -5.175143902e-08                 -0.0001696522887 2.098061297e-06 -4.806044978e-08
      10238.09524                 -5.226114332e-05 -1.069911835e-05 6.93514498e-08                 -0.0001245003236 6.690648533e-06 -5.302139649e-08                 -0.0001693728527 2.202062473e-06 -4.748446e-08
      10476.19048                 -5.151919549e-05 -1.060218579e-05 7.320292317e-08                 -0.0001234417096 6.721091607e-06 -5.442592839e-08                 -0.0001690405117 2.303608082e-06 -4.686462925e-08
      10714.28571                 -5.079613503e-05 -1.05062752e-05 7.724677017e-08                 -0.0001223894398 6.747704845e-06 -5.583476112e-08                 -0.0001686705327 2.403537886e-06 -4.613571514e-08
      10952.38095                 -5.008853923e-05 -1.041108061e-05 8.154623526e-08                 -0.0001213366084 6.770456765e-06 -5.729742608e-08                 -0.0001682584787 2.500290358e-06 -4.533638012e-08
      11190.47619                 -4.939078211e-05 -1.031565761e-05 8.641851602e-08                 -0.0001202677704 6.788767537e-06 -5.907746765e-08                 -0.0001677810065 2.590781952e-06 -4.465913993e-08
      11428.57143                 -4.871622724e-05 -1.02213767e-05 9.146817616e-08                 -0.0001192072746 6.802992874e-06 -6.096337269e-08                 -0.0001672726184 2.676790711e-06 -4.399505451e-08
      11666.66667                 -4.806789675e-05 -1.012955552e-05 9.703771501e-08                 -0.0001181671133 6.813852711e-06 -6.307055249e-08                 -0.0001667377026 2.759447067e-06 -4.328018314e-08
       11904.7619                 -4.743794622e-05 -1.003956445e-05 1.031408412e-07                 -0.0001171346125 6.821071242e-06 -6.549663533e-08                 -0.0001661635291 2.83902784e-06 -4.279559588e-08
      12142.85714                 -4.682669381e-05 -9.951703097e-06 1.095919704e-07                 -0.0001161237894 6.826548036e-06 -6.822137086e-08                 -0.0001655779112 2.914610771e-06 -4.237183553e-08
      12380.95238                 -4.622031591e-05 -9.864844023e-06 1.165773954e-07                 -0.0001151204431 6.830621196e-06 -7.124462148e-08                 -0.0001649711153 2.986028267e-06 -4.199658148e-08
      12619.04762                 -4.561189363e-05 -9.777483152e-06 1.240769846e-07                 -0.0001141140983 6.833951702e-06 -7.461510352e-08                 -0.0001643463476 3.054549593e-06 -4.19561067e-08
      12857.14286                 -4.500285908e-05 -9.689457375e-06 1.319469499e-07                 -0.0001131084075 6.837481668e-06 -7.816748942e-08                 -0.0001637196532 3.122037634e-06 -4.199428925e-08
