/*--------------------------------*- C++ -*----------------------------------*\
| =========                 |                                                 |
| \\      /  F ield         | foam-extend: Open Source CFD                    |
|  \\    /   O peration     | Version:     4.1                                |
|   \\  /    A nd           | Web:         http://www.foam-extend.org         |
|    \\/     M anipulation  |                                                 |
\*---------------------------------------------------------------------------*/
FoamFile
{
    version     2.0;
    format      ascii;
    class       volScalarField;
    location    "10000";
    object      p;
}
// * * * * * * * * * * * * * * * * * * * * * * * * * * * * * * * * * * * * * //

dimensions      [0 2 -2 0 0 0 0];

internalField   nonuniform List<scalar> 
15920
(
1.768401971e-08
1.48588328e-08
1.266691933e-08
1.154770762e-08
1.074892516e-08
9.924607443e-09
9.1222232e-09
8.419710249e-09
7.820447222e-09
7.302765247e-09
6.855654308e-09
6.475668102e-09
6.157767798e-09
5.893878315e-09
5.674989802e-09
5.492491189e-09
5.338455549e-09
5.20571852e-09
5.088013958e-09
4.98006328e-09
4.877560483e-09
4.777087151e-09
4.676000786e-09
4.572317145e-09
4.464594396e-09
4.351824664e-09
4.233340305e-09
4.108733912e-09
3.977789384e-09
3.840456728e-09
3.696781404e-09
3.546853626e-09
3.390830141e-09
3.228665514e-09
3.060786713e-09
2.887395365e-09
2.708658718e-09
2.524787578e-09
2.336020997e-09
2.142613139e-09
1.944834079e-09
1.742973408e-09
1.537342261e-09
1.328274207e-09
1.116128694e-09
9.01302348e-10
6.841677339e-10
4.652028788e-10
2.448419766e-10
2.358488486e-11
1.238434411e-08
1.203367687e-08
1.14655764e-08
1.093670758e-08
1.04250325e-08
9.84963589e-09
9.236100942e-09
8.639888034e-09
8.08682181e-09
7.583075407e-09
7.132495751e-09
6.738572528e-09
6.400960056e-09
6.115018514e-09
5.873732086e-09
5.669502578e-09
5.494953468e-09
5.343235865e-09
5.208236393e-09
5.084715748e-09
4.968336218e-09
4.85560311e-09
4.743768488e-09
4.630726771e-09
4.514906029e-09
4.395155489e-09
4.270668428e-09
4.140905564e-09
4.005516243e-09
3.864256885e-09
3.717049086e-09
3.56397871e-09
3.405246316e-09
3.241246795e-09
3.071581725e-09
2.896408155e-09
2.716036411e-09
2.530706543e-09
2.340625533e-09
2.146020463e-09
1.94714838e-09
1.744292382e-09
1.537760304e-09
1.327883141e-09
1.115002776e-09
8.995544867e-10
6.817498008e-10
4.622620951e-10
2.415533557e-10
2.001440217e-11
1.186221163e-08
1.169914835e-08
1.125729671e-08
1.069785567e-08
1.015788542e-08
9.640405935e-09
9.125889436e-09
8.625830521e-09
8.157482934e-09
7.727323057e-09
7.33576482e-09
6.982855925e-09
6.668149541e-09
6.389488328e-09
6.143367145e-09
5.925708491e-09
5.73228645e-09
5.558871004e-09
5.401355494e-09
5.255907512e-09
5.119083037e-09
4.987879798e-09
4.859745493e-09
4.732559474e-09
4.604608214e-09
4.474556549e-09
4.341372665e-09
4.204271508e-09
4.062673394e-09
3.916174725e-09
3.764538252e-09
3.607655818e-09
3.445491481e-09
3.278019973e-09
3.105143747e-09
2.926966163e-09
2.743683895e-09
2.555473519e-09
2.362506296e-09
2.164983931e-09
1.96314784e-09
1.757272748e-09
1.54765935e-09
1.334633603e-09
1.118559796e-09
8.9978028e-10
6.789091662e-10
4.561850452e-10
2.321590468e-10
7.344115581e-12
1.087260815e-08
1.072989069e-08
1.044619415e-08
1.008641674e-08
9.710807791e-09
9.331012643e-09
8.940817313e-09
8.547212016e-09
8.164750121e-09
7.802758697e-09
7.464537327e-09
7.151453107e-09
6.86435625e-09
6.603020884e-09
6.365974627e-09
6.150904214e-09
5.955063824e-09
5.77551047e-09
5.609253559e-09
5.453391997e-09
5.305227968e-09
5.162336748e-09
5.02259669e-09
4.884194041e-09
4.745612884e-09
4.605611488e-09
4.463185448e-09
4.317535624e-09
4.168041869e-09
4.014237789e-09
3.855787173e-09
3.692460611e-09
3.524110448e-09
3.350653614e-09
3.172050962e-09
2.988322187e-09
2.799549636e-09
2.605852479e-09
2.40737054e-09
2.204262576e-09
1.996753295e-09
1.785121394e-09
1.569691194e-09
1.350850999e-09
1.128886797e-09
9.041406345e-10
6.770818495e-10
4.48180854e-10
2.179881175e-10
-1.293001731e-11
1.023979801e-08
1.016910506e-08
9.9978653e-09
9.747351888e-09
9.455705192e-09
9.144459555e-09
8.820375141e-09
8.490047246e-09
8.163119128e-09
7.847518619e-09
7.547484303e-09
7.265093308e-09
7.001533749e-09
6.757147347e-09
6.531279026e-09
6.322485728e-09
6.128871598e-09
5.948320947e-09
5.778631041e-09
5.617611704e-09
5.463170472e-09
5.313373062e-09
5.166476362e-09
5.020941336e-09
4.875433271e-09
4.72881356e-09
4.58012536e-09
4.428576285e-09
4.273520939e-09
4.114443442e-09
3.950941643e-09
3.782712966e-09
3.609538852e-09
3.431268927e-09
3.247804931e-09
3.059117727e-09
2.865229988e-09
2.666238793e-09
2.462295912e-09
2.25347769e-09
2.039975892e-09
1.822057462e-09
1.600011961e-09
1.374131398e-09
1.144889801e-09
9.127662886e-10
6.782044155e-10
4.416807066e-10
2.037260019e-10
-3.509923005e-11
9.758731285e-09
9.708757573e-09
9.583718634e-09
9.393656306e-09
9.16486958e-09
8.915401785e-09
8.652623678e-09
8.381400948e-09
8.108089287e-09
7.838917652e-09
7.578151934e-09
7.328260377e-09
7.090705592e-09
6.866234435e-09
6.654859945e-09
6.455945975e-09
6.268406317e-09
6.090881721e-09
5.921854962e-09
5.759735142e-09
5.602931299e-09
5.44991207e-09
5.299246411e-09
5.149627517e-09
4.999884853e-09
4.848987839e-09
4.696042947e-09
4.54028604e-09
4.38107243e-09
4.217866906e-09
4.05023401e-09
3.87783006e-09
3.700392912e-09
3.517728593e-09
3.329655506e-09
3.136143563e-09
2.937164265e-09
2.732721234e-09
2.522875221e-09
2.307861488e-09
2.08789409e-09
1.863202063e-09
1.634069005e-09
1.400843528e-09
1.163952726e-09
9.238504393e-10
6.810066314e-10
4.359355757e-10
1.892094336e-10
-5.854982252e-11
9.381784635e-09
9.344130281e-09
9.251037925e-09
9.107769566e-09
8.930562237e-09
8.731647211e-09
8.517278763e-09
8.291982889e-09
8.06092988e-09
7.829249514e-09
7.600864732e-09
7.378348101e-09
7.163353988e-09
6.956897532e-09
6.759403789e-09
6.570751012e-09
6.390388206e-09
6.21746817e-09
6.050950425e-09
5.889677885e-09
5.732441081e-09
5.578031968e-09
5.425284319e-09
5.273100853e-09
5.120469918e-09
4.966474581e-09
4.810295925e-09
4.65121218e-09
4.488595304e-09
4.321906146e-09
4.15068587e-09
3.974552483e-09
3.793208521e-09
3.606409424e-09
3.414019316e-09
3.215873581e-09
3.011923661e-09
2.802186157e-09
2.586737664e-09
2.365725961e-09
2.139329166e-09
1.907769747e-09
1.671336046e-09
1.430383549e-09
1.185328913e-09
9.366413801e-10
6.848390476e-10
4.304915493e-10
1.742217024e-10
-8.329990443e-11
9.084551933e-09
9.0557504e-09
8.984321647e-09
8.872879867e-09
8.731962906e-09
8.570138682e-09
8.39258835e-09
8.20338769e-09
8.006770469e-09
7.806809738e-09
7.606797338e-09
7.409102143e-09
7.215369247e-09
7.026697463e-09
6.843699407e-09
6.666538668e-09
6.495005195e-09
6.328609587e-09
6.166664932e-09
6.008350447e-09
5.852764064e-09
5.698967319e-09
5.546021432e-09
5.393014101e-09
5.239078175e-09
5.083403888e-09
4.925246636e-09
4.763931916e-09
4.598854674e-09
4.429481948e-09
4.255353388e-09
4.076073161e-09
3.891296026e-09
3.700752475e-09
3.504240468e-09
3.301602648e-09
3.092756588e-09
2.877685736e-09
2.656432211e-09
2.429100452e-09
2.195857899e-09
1.956935317e-09
1.712630233e-09
1.463307831e-09
1.209399666e-09
9.514015497e-10
6.898699117e-10
4.254184258e-10
1.587158213e-10
-1.095170843e-10
8.848411261e-09
8.825601939e-09
8.76893576e-09
8.679860044e-09
8.565785678e-09
8.432836953e-09
8.284936542e-09
8.125345198e-09
7.957419877e-09
7.784389081e-09
7.608972192e-09
7.433264117e-09
7.258815744e-09
7.086729751e-09
6.917708065e-09
6.752084514e-09
6.589875296e-09
6.430843074e-09
6.274557878e-09
6.120448176e-09
5.96784412e-09
5.816015287e-09
5.664202464e-09
5.511642913e-09
5.357589459e-09
5.201325048e-09
5.042168128e-09
4.879493176e-09
4.712721892e-09
4.541325487e-09
4.364830263e-09
4.182820245e-09
3.994935928e-09
3.800879335e-09
3.600412708e-09
3.393356729e-09
3.179594151e-09
2.959073576e-09
2.731810347e-09
2.497889109e-09
2.257465807e-09
2.010767406e-09
1.758093253e-09
1.49981718e-09
1.236388088e-09
9.683284531e-10
6.962312225e-10
4.207564002e-10
1.426278684e-10
-1.373706738e-10
8.660541984e-09
8.642052795e-09
8.596123575e-09
8.523612295e-09
8.429941515e-09
8.319513314e-09
8.195176452e-09
8.059447062e-09
7.914999879e-09
7.764436806e-09
7.610000614e-09
7.453490762e-09
7.296302078e-09
7.139474613e-09
6.983722294e-09
6.829456759e-09
6.676821975e-09
6.525738195e-09
6.375946323e-09
6.227047997e-09
6.078540568e-09
5.929847904e-09
5.780347475e-09
5.62939543e-09
5.476337126e-09
5.32053329e-09
5.161364508e-09
4.998229897e-09
4.830567225e-09
4.657855252e-09
4.479615345e-09
4.295415811e-09
4.104874821e-09
3.90766343e-09
3.703508943e-09
3.492197679e-09
3.27357846e-09
3.047567696e-09
2.81415309e-09
2.573396688e-09
2.325437783e-09
2.070495379e-09
1.808870732e-09
1.540949531e-09
1.267202617e-09
9.881848849e-10
7.04532765e-10
4.169607477e-10
1.262569163e-10
-1.667228712e-10
8.511774292e-09
8.496528657e-09
8.458652764e-09
8.398654859e-09
8.320631471e-09
8.227822286e-09
8.122298653e-09
8.005980387e-09
7.880984004e-09
7.749395841e-09
7.613040719e-09
7.47342341e-09
7.331752824e-09
7.188965842e-09
7.045738855e-09
6.902501486e-09
6.759459847e-09
6.616626891e-09
6.473853855e-09
6.330860637e-09
6.187262616e-09
6.042598452e-09
5.896339639e-09
5.747937445e-09
5.59681495e-09
5.442379825e-09
5.28404881e-09
5.121250984e-09
4.95343635e-09
4.780082042e-09
4.600697098e-09
4.414827831e-09
4.222063079e-09
4.022039297e-09
3.814445885e-09
3.599030339e-09
3.37560363e-09
3.144046081e-09
2.904312975e-09
2.656439704e-09
2.400546633e-09
2.13684349e-09
1.865633001e-09
1.587313535e-09
1.302380317e-09
1.011424935e-09
7.151331013e-10
4.142807677e-10
1.09728673e-10
-1.97584704e-10
8.395231911e-09
8.382478969e-09
8.350791683e-09
8.300467689e-09
8.234692436e-09
8.155907733e-09
8.065622467e-09
7.965280867e-09
7.856537657e-09
7.741053645e-09
7.620302876e-09
7.495527215e-09
7.367752285e-09
7.237797005e-09
7.106273866e-09
6.973594434e-09
6.8399839e-09
6.705501407e-09
6.57006159e-09
6.433464286e-09
6.295392233e-09
6.155467681e-09
6.013246247e-09
5.868219409e-09
5.719858568e-09
5.567615733e-09
5.410933037e-09
5.249252266e-09
5.082023153e-09
4.908711029e-09
4.728803638e-09
4.541817744e-09
4.347305819e-09
4.1448628e-09
3.934133052e-09
3.714817508e-09
3.486681081e-09
3.249560334e-09
3.003371173e-09
2.748116257e-09
2.483891953e-09
2.210894545e-09
1.929425423e-09
1.639894918e-09
1.342824477e-09
1.038846835e-09
7.287039252e-10
4.132425198e-10
9.340771443e-11
-2.297656186e-10
8.305631557e-09
8.294840093e-09
8.268023831e-09
8.225349503e-09
8.169348972e-09
8.10189731e-09
8.024095675e-09
7.937022502e-09
7.841965054e-09
7.740241809e-09
7.633038214e-09
7.52136849e-09
7.406086678e-09
7.287889457e-09
7.16731038e-09
7.044719709e-09
6.920333068e-09
6.794226727e-09
6.666326329e-09
6.536492984e-09
6.404469565e-09
6.269899772e-09
6.132379013e-09
5.99144857e-09
5.84660961e-09
5.69733361e-09
5.543071557e-09
5.383263441e-09
5.217346845e-09
5.04476492e-09
4.864974029e-09
4.677451377e-09
4.481702922e-09
4.277271645e-09
4.06374625e-09
3.84077031e-09
3.608051815e-09
3.365373063e-09
3.112600681e-09
2.849695491e-09
2.576721888e-09
2.293856379e-09
2.001394846e-09
1.699758127e-09
1.389495496e-09
1.071285632e-09
7.4593473e-10
4.143715816e-10
7.7639732e-11
-2.631130381e-10
8.238820483e-09
8.229606828e-09
8.206707802e-09
8.170206196e-09
8.122149583e-09
8.064001593e-09
7.996568757e-09
7.920653664e-09
7.837254922e-09
7.747415522e-09
7.652082651e-09
7.552075442e-09
7.448093277e-09
7.340715178e-09
7.230391048e-09
7.117436409e-09
7.002032909e-09
6.884251637e-09
6.764065361e-09
6.641298786e-09
6.515720153e-09
6.38701463e-09
6.254798916e-09
6.118632501e-09
5.978027284e-09
5.83245753e-09
5.681368754e-09
5.524186108e-09
5.360322507e-09
5.189186663e-09
5.010191247e-09
4.822761388e-09
4.626343719e-09
4.42041607e-09
4.204497894e-09
3.978161406e-09
3.74104343e-09
3.492857816e-09
3.233408197e-09
2.962600761e-09
2.680456603e-09
2.387123183e-09
2.082884334e-09
1.768168204e-09
1.443552538e-09
1.109766763e-09
7.676904373e-10
4.183477294e-10
6.289791715e-11
-2.97377756e-10
8.191462331e-09
8.183545066e-09
8.163860431e-09
8.132437396e-09
8.090956381e-09
8.04057584e-09
7.981886878e-09
7.915484299e-09
7.842142031e-09
7.762683086e-09
7.67785918e-09
7.588323491e-09
7.494640258e-09
7.397280114e-09
7.296611153e-09
7.192891825e-09
7.086275193e-09
6.976798388e-09
6.864408661e-09
6.748953382e-09
6.63020134e-09
6.507844443e-09
6.381503844e-09
6.250740013e-09
6.115061185e-09
5.973931044e-09
5.826776181e-09
5.672993557e-09
5.511958155e-09
5.343030928e-09
5.165567222e-09
4.978925888e-09
4.782479275e-09
4.575624227e-09
4.35779419e-09
4.12847246e-09
3.887206534e-09
3.633623434e-09
3.367445726e-09
3.088507797e-09
2.796771917e-09
2.492343435e-09
2.175484408e-09
1.84662477e-09
1.506370159e-09
1.155505651e-09
7.949947992e-10
4.259734937e-10
4.973840791e-11
-3.322696914e-10
8.160820069e-09
8.153994017e-09
8.137001963e-09
8.109839053e-09
8.073902923e-09
8.030122956e-09
7.978929676e-09
7.920756075e-09
7.856203981e-09
7.785923959e-09
7.710511614e-09
7.630479055e-09
7.54627408e-09
7.458272713e-09
7.366765177e-09
7.271950369e-09
7.173933991e-09
7.072727987e-09
6.968257775e-09
6.860363374e-09
6.748803505e-09
6.633261612e-09
6.513351177e-09
6.388621922e-09
6.258566e-09
6.122623966e-09
5.980190891e-09
5.830622838e-09
5.673243832e-09
5.507353428e-09
5.332235093e-09
5.147165664e-09
4.951426062e-09
4.744313502e-09
4.525155275e-09
4.293324223e-09
4.048255873e-09
3.789467083e-09
3.516575924e-09
3.229322314e-09
2.927588752e-09
2.611420372e-09
2.281043342e-09
1.936880486e-09
1.579562819e-09
1.209935818e-09
8.290595024e-10
4.382016265e-10
3.882356037e-11
-3.674410101e-10
8.144600913e-09
8.138701698e-09
8.124004039e-09
8.100482236e-09
8.069303713e-09
8.03122727e-09
7.986573731e-09
7.935639323e-09
7.878893518e-09
7.816849356e-09
7.749969954e-09
7.678662907e-09
7.603276008e-09
7.524098775e-09
7.441351744e-09
7.355177852e-09
7.265639012e-09
7.172715508e-09
7.076306759e-09
6.976232451e-09
6.872234371e-09
6.763979874e-09
6.651065339e-09
6.533019828e-09
6.409309114e-09
6.279340008e-09
6.14246506e-09
5.997987833e-09
5.845168868e-09
5.683232555e-09
5.511375179e-09
5.32877441e-09
5.134600534e-09
4.928029677e-09
4.70825924e-09
4.474525689e-09
4.226124728e-09
3.962433772e-09
3.68293643e-09
3.387248498e-09
3.075144688e-09
2.746585035e-09
2.4017397e-09
2.04101071e-09
1.665048896e-09
1.274764191e-09
8.713276677e-10
4.561641497e-10
3.093479822e-11
-4.024902939e-10
8.140950877e-09
8.135816031e-09
8.123094795e-09
8.102750067e-09
8.075743875e-09
8.042670862e-09
8.003762298e-09
7.959280324e-09
7.909571024e-09
7.85502193e-09
7.795993609e-09
7.732800244e-09
7.665709327e-09
7.594938927e-09
7.520648359e-09
7.442929782e-09
7.361803704e-09
7.277216742e-09
7.189040337e-09
7.097070326e-09
7.001027106e-09
6.900556539e-09
6.795231284e-09
6.684552457e-09
6.567951727e-09
6.444793864e-09
6.314379804e-09
6.175950386e-09
6.028690993e-09
5.871737374e-09
5.704182975e-09
5.525088089e-09
5.333491268e-09
5.128423305e-09
4.908924139e-09
4.674062989e-09
4.422961824e-09
4.154822188e-09
3.868955136e-09
3.564813801e-09
3.242027732e-09
2.9004377e-09
2.540129253e-09
2.16146303e-09
1.765099473e-09
1.352015337e-09
9.235093584e-10
4.811949854e-10
2.697898093e-11
-4.369742894e-10
8.148017044e-09
8.143584182e-09
8.132620201e-09
8.115084871e-09
8.091780211e-09
8.063194657e-09
8.029502154e-09
7.990880315e-09
7.94759743e-09
7.899955721e-09
7.848234152e-09
7.792672722e-09
7.733472734e-09
7.670792515e-09
7.604738849e-09
7.535359253e-09
7.462636735e-09
7.386486264e-09
7.306752091e-09
7.223205647e-09
7.135543949e-09
7.043388491e-09
6.94628462e-09
6.843701286e-09
6.735031154e-09
6.619591151e-09
6.496623585e-09
6.365298052e-09
6.224714389e-09
6.073906998e-09
5.911850941e-09
5.737470268e-09
5.549649083e-09
5.347245856e-09
5.129111488e-09
4.894111621e-09
4.64115355e-09
4.369217906e-09
4.077394995e-09
3.764925351e-09
3.431243664e-09
3.076024617e-09
2.699228439e-09
2.3011434e-09
1.88242195e-09
1.444106759e-09
9.876427345e-10
5.148714049e-10
2.800519939e-11
-4.704192567e-10
8.164356142e-09
8.160574639e-09
8.151205245e-09
8.136206906e-09
8.116254638e-09
8.09174873e-09
8.062814311e-09
8.029576038e-09
7.992243042e-09
7.951052756e-09
7.906219651e-09
7.857923653e-09
7.806311553e-09
7.751492989e-09
7.693531942e-09
7.632438844e-09
7.568164849e-09
7.500597436e-09
7.429556512e-09
7.354790835e-09
7.275974812e-09
7.192705674e-09
7.104500951e-09
7.010796187e-09
6.910942926e-09
6.804207062e-09
6.689767751e-09
6.566717097e-09
6.434060912e-09
6.290720965e-09
6.135539186e-09
5.967284456e-09
5.784662607e-09
5.586330369e-09
5.370914003e-09
5.137033389e-09
4.883332256e-09
4.60851503e-09
4.311390488e-09
3.99092196e-09
3.646283293e-09
3.276919022e-09
2.882606178e-09
2.463514076e-09
2.020257439e-09
1.553937432e-09
1.066164626e-09
5.590579483e-10
3.521494255e-11
-5.023491006e-10
8.188641362e-09
8.185451658e-09
8.177538016e-09
8.164861011e-09
8.147985011e-09
8.127237343e-09
8.102709693e-09
8.074492794e-09
8.042748965e-09
8.00766342e-09
7.969400156e-09
7.928092884e-09
7.883846602e-09
7.836733409e-09
7.786783968e-09
7.733979649e-09
7.678246557e-09
7.619450411e-09
7.557391575e-09
7.491800202e-09
7.422331561e-09
7.348561526e-09
7.269982138e-09
7.185997218e-09
7.095918086e-09
6.998959511e-09
6.894236039e-09
6.780758962e-09
6.657434286e-09
6.523062149e-09
6.376338323e-09
6.215858476e-09
6.040126073e-09
5.847564899e-09
5.636537281e-09
5.405369128e-09
5.15238292e-09
4.875939641e-09
4.574490431e-09
4.246638106e-09
3.891208025e-09
3.507326772e-09
3.094505848e-09
2.652725828e-09
2.182514681e-09
1.685012374e-09
1.162012648e-09
6.159722789e-10
4.997929874e-11
-5.323253578e-10
8.219636788e-09
8.216991898e-09
8.210426285e-09
8.199904649e-09
8.185892184e-09
8.16865553e-09
8.148264331e-09
8.124786672e-09
8.09834939e-09
8.069097713e-09
8.03715836e-09
8.002631612e-09
7.965592044e-09
7.926084251e-09
7.884114789e-09
7.83964451e-09
7.792582273e-09
7.742779142e-09
7.690022505e-09
7.634030084e-09
7.574443856e-09
7.51082387e-09
7.442641903e-09
7.369274913e-09
7.289998328e-09
7.203979285e-09
7.110269955e-09
7.007801236e-09
6.895377217e-09
6.771670889e-09
6.635221829e-09
6.484436684e-09
6.317593544e-09
6.132851496e-09
5.928266838e-09
5.701817583e-09
5.451437994e-09
5.175064902e-09
4.870697423e-09
4.536471129e-09
4.170746786e-09
3.772212604e-09
3.339997135e-09
2.873787612e-09
2.373945474e-09
1.841607923e-09
1.278761705e-09
6.882734236e-10
7.386111534e-11
-5.600044267e-10
8.256199006e-09
8.254063619e-09
8.248761348e-09
8.240263255e-09
8.228945397e-09
8.215023467e-09
8.19855367e-09
8.17959066e-09
8.158236317e-09
8.134606985e-09
8.108803095e-09
8.080902019e-09
8.050957953e-09
8.018997669e-09
7.985012962e-09
7.948953129e-09
7.910718372e-09
7.87015343e-09
7.827040903e-09
7.781094199e-09
7.731950141e-09
7.679161171e-09
7.622187093e-09
7.560386291e-09
7.49300641e-09
7.419174572e-09
7.337887274e-09
7.248000211e-09
7.148218385e-09
7.037087062e-09
6.912984306e-09
6.774116091e-09
6.618515249e-09
6.44404587e-09
6.248415117e-09
6.029194741e-09
5.783854897e-09
5.509813027e-09
5.204500667e-09
4.865450657e-09
4.490406367e-09
4.077453015e-09
3.625168854e-09
3.132790778e-09
2.60038436e-09
2.029003159e-09
1.420816835e-09
7.791828871e-10
1.086346802e-10
-5.852380768e-10
8.297257097e-09
8.295603166e-09
8.291495717e-09
8.284914122e-09
8.276153959e-09
8.265387914e-09
8.252665677e-09
8.238036131e-09
8.221585003e-09
8.20340903e-09
8.183591718e-09
8.162196975e-09
8.13926813e-09
8.114823584e-09
8.088849678e-09
8.061293388e-09
8.032055525e-09
8.00098388e-09
7.967865865e-09
7.932420517e-09
7.894289873e-09
7.853029654e-09
7.808099126e-09
7.758850017e-09
7.704514456e-09
7.644191924e-09
7.576835281e-09
7.501236101e-09
7.416009562e-09
7.319579435e-09
7.210163918e-09
7.085763395e-09
6.944151556e-09
6.782871738e-09
6.599240936e-09
6.390364582e-09
6.153165765e-09
5.884433065e-09
5.580891566e-09
5.239301734e-09
4.856590372e-09
4.430016176e-09
3.957369642e-09
3.437202774e-09
2.86907764e-09
2.253814329e-09
1.593709435e-09
8.926863189e-10
1.56330562e-10
-6.082377265e-10
8.341798386e-09
8.340602695e-09
8.337632966e-09
8.332878394e-09
8.326561357e-09
8.318818103e-09
8.309697464e-09
8.299248876e-09
8.287549334e-09
8.274684072e-09
8.260728085e-09
8.245740462e-09
8.229762483e-09
8.212813154e-09
8.194882534e-09
8.175924708e-09
8.15585089e-09
8.134522188e-09
8.111741675e-09
8.08724561e-09
8.060693743e-09
8.031658579e-09
7.999613446e-09
7.96391916e-09
7.923809142e-09
7.878372917e-09
7.826537965e-09
7.767049965e-09
7.698451607e-09
7.619060376e-09
7.526945977e-09
7.419908448e-09
7.29545844e-09
7.150801792e-09
6.982831224e-09
6.788128971e-09
6.562985334e-09
6.303439072e-09
6.005346619e-09
5.664487972e-09
5.276717417e-09
4.838166319e-09
4.345502284e-09
3.796243804e-09
3.189120575e-09
2.524456175e-09
1.804533125e-09
1.03388187e-09
2.194192187e-10
-6.296488384e-10
8.388858808e-09
8.388101218e-09
8.386219445e-09
8.383213646e-09
8.37923919e-09
8.374401454e-09
8.368753119e-09
8.362349483e-09
8.35526519e-09
8.347581066e-09
8.339371087e-09
8.330697316e-09
8.321607138e-09
8.312128716e-09
8.302264821e-09
8.291986164e-09
8.281224506e-09
8.26986521e-09
8.257738902e-09
8.244612106e-09
8.230176684e-09
8.214037909e-09
8.195700887e-09
8.174555112e-09
8.149856859e-09
8.120709205e-09
8.086039493e-09
8.044574067e-09
7.994810272e-09
7.934985895e-09
7.86304645e-09
7.77661116e-09
7.672938974e-09
7.548896804e-09
7.40093306e-09
7.225060928e-09
7.016857351e-09
6.771485794e-09
6.483752869e-09
6.148210896e-09
5.759320299e-09
5.31168658e-09
4.800385127e-09
4.221382238e-09
3.572050405e-09
2.851756627e-09
2.0624726e-09
1.209315089e-09
3.008859851e-10
-6.50744694e-10
8.437516663e-09
8.437178686e-09
8.436339065e-09
8.435009766e-09
8.433284563e-09
8.431242717e-09
8.42894469e-09
8.426456106e-09
8.423854721e-09
8.421223146e-09
8.418640962e-09
8.416180233e-09
8.413901959e-09
8.411851528e-09
8.410053109e-09
8.408503454e-09
8.407165145e-09
8.405959125e-09
8.404756203e-09
8.403367348e-09
8.401532541e-09
8.39890794e-09
8.395051003e-09
8.389403203e-09
8.381269971e-09
8.369797442e-09
8.353945588e-09
8.332457312e-09
8.303823197e-09
8.266241701e-09
8.217574818e-09
8.15529952e-09
8.076455945e-09
7.977594164e-09
7.854722481e-09
7.703261894e-09
7.518013565e-09
7.293149022e-09
7.022236593e-09
6.698321623e-09
6.314082202e-09
5.862086101e-09
5.335176274e-09
4.727010236e-09
4.032770143e-09
3.250041828e-09
2.379822224e-09
1.4275448e-09
4.039033832e-10
-6.748893448e-10
8.486889245e-09
8.486952883e-09
8.487110774e-09
8.487387311e-09
8.487819538e-09
8.488464714e-09
8.489394306e-09
8.490687971e-09
8.492431228e-09
8.494713809e-09
8.497626707e-09
8.501258248e-09
8.505689856e-09
8.510991604e-09
8.517217255e-09
8.524398657e-09
8.532539338e-09
8.541607219e-09
8.551526251e-09
8.562166694e-09
8.573333756e-09
8.584754263e-09
8.596060929e-09
8.60677375e-09
8.616277989e-09
8.62379814e-09
8.628367168e-09
8.628790274e-09
8.623602447e-09
8.611019066e-09
8.588878938e-09
8.554579347e-09
8.505003191e-09
8.436439112e-09
8.344496776e-09
8.224021334e-09
8.069013813e-09
7.872568225e-09
7.626841605e-09
7.323080064e-09
6.951733001e-09
6.502697033e-09
5.965739497e-09
5.331155089e-09
4.590702113e-09
3.738847114e-09
2.774306315e-09
1.701825707e-09
5.339998418e-10
-7.073956755e-10
8.536131797e-09
8.536578632e-09
8.537688293e-09
8.539497989e-09
8.541992566e-09
8.545210855e-09
8.549237907e-09
8.554170399e-09
8.560105493e-09
8.567144567e-09
8.575394985e-09
8.584966761e-09
8.595967754e-09
8.60849941e-09
8.622652581e-09
8.638502641e-09
8.656103653e-09
8.675481548e-09
8.696626204e-09
8.7194821e-09
8.743937196e-09
8.769809651e-09
8.796831872e-09
8.824631301e-09
8.852707231e-09
8.880402836e-09
8.906871416e-09
8.931035746e-09
8.951539231e-09
8.966687429e-09
8.974378473e-09
8.972020922e-09
8.956437732e-09
8.923755566e-09
8.869279705e-09
8.787356718e-09
8.671229858e-09
8.512896789e-09
8.302986455e-09
8.030682354e-09
7.683732784e-09
7.24860998e-09
6.710903273e-09
6.056058426e-09
5.270581008e-09
4.343808977e-09
3.270242962e-09
2.052342518e-09
7.03538734e-10
-7.487317674e-10
8.584438409e-09
8.585248833e-09
8.587261573e-09
8.590526812e-09
8.594981493e-09
8.600649171e-09
8.607630434e-09
8.616041246e-09
8.625993517e-09
8.637603976e-09
8.651000446e-09
8.666319142e-09
8.683699431e-09
8.703279856e-09
8.725194874e-09
8.74957086e-09
8.776521067e-09
8.806139573e-09
8.838494159e-09
8.873617774e-09
8.9114982e-09
8.95206548e-09
8.995176516e-09
9.040596173e-09
9.087974031e-09
9.13681574e-09
9.186447716e-09
9.235973666e-09
9.284221071e-09
9.32967538e-09
9.370399381e-09
9.403934845e-09
9.427183323e-09
9.436262801e-09
9.426337295e-09
9.391417661e-09
9.324134358e-09
9.215487145e-09
9.054584386e-09
8.82839702e-09
8.521571296e-09
8.116371605e-09
7.592867197e-09
6.929554235e-09
6.104664392e-09
5.09860388e-09
3.897708297e-09
2.499629887e-09
9.188555323e-10
-8.086424743e-10
8.63104457e-09
8.632197192e-09
8.63505991e-09
8.63969579e-09
8.645998064e-09
8.653977754e-09
8.663752324e-09
8.675458588e-09
8.68922553e-09
8.705188079e-09
8.723497676e-09
8.744320232e-09
8.767830578e-09
8.794208922e-09
8.823638578e-09
8.856303064e-09
8.892382074e-09
8.932046498e-09
8.975452471e-09
9.022734116e-09
9.073994606e-09
9.129295024e-09
9.188640417e-09
9.25196232e-09
9.319096804e-09
9.389756834e-09
9.463497408e-09
9.539671612e-09
9.617375192e-09
9.695376637e-09
9.77202905e-09
9.845159264e-09
9.911928772e-09
9.968660039e-09
1.001062072e-08
1.003175795e-08
1.002437566e-08
9.978750384e-09
9.882687461e-09
9.721031666e-09
9.475169044e-09
9.122589563e-09
8.636626264e-09
7.986568989e-09
7.138415374e-09
6.057143049e-09
4.710822023e-09
3.081108845e-09
1.17538516e-09
-9.505527509e-10
8.675230825e-09
8.676702052e-09
8.680356141e-09
8.686268713e-09
8.694293441e-09
8.704431223e-09
8.716817112e-09
8.731609595e-09
8.748956271e-09
8.769012232e-09
8.791954688e-09
8.817981617e-09
8.847306017e-09
8.880152912e-09
8.916758183e-09
8.957366933e-09
9.002230663e-09
9.051603657e-09
9.10573856e-09
9.16488089e-09
9.229262086e-09
9.299090564e-09
9.374540197e-09
9.455735473e-09
9.542732382e-09
9.635493732e-09
9.733857209e-09
9.837494026e-09
9.945855393e-09
1.005810317e-08
1.017302002e-08
1.028889284e-08
1.04033617e-08
1.051322424e-08
1.061418256e-08
1.070051683e-08
1.076466627e-08
1.079669677e-08
1.078363435e-08
1.070865136e-08
1.055011893e-08
1.028057574e-08
9.865781233e-09
9.26403454e-09
8.426174755e-09
7.296604184e-09
5.81461347e-09
3.925475168e-09
1.583386411e-09
-1.155978187e-09
8.71632742e-09
8.718091151e-09
8.722471761e-09
8.729556844e-09
8.739164677e-09
8.751288122e-09
8.766079917e-09
8.783720314e-09
8.804376259e-09
8.828224056e-09
8.855467754e-09
8.886338524e-09
8.921088832e-09
8.959990073e-09
9.003332616e-09
9.051425514e-09
9.104595105e-09
9.163182976e-09
9.2275434e-09
9.298040058e-09
9.375041611e-09
9.458915663e-09
9.550020606e-09
9.648694651e-09
9.755241138e-09
9.869908868e-09
9.992865781e-09
1.012416376e-08
1.026369156e-08
1.041111202e-08
1.056577812e-08
1.072662078e-08
1.08919986e-08
1.105949612e-08
1.122565294e-08
1.138559883e-08
1.153256161e-08
1.165720275e-08
1.174672294e-08
1.178366349e-08
1.174433509e-08
1.159679811e-08
1.129856689e-08
1.079406633e-08
1.001389072e-08
8.874181808e-09
7.284196148e-09
5.150658756e-09
2.354114704e-09
-1.113839321e-09
8.753719572e-09
8.755747031e-09
8.760782655e-09
8.768925181e-09
8.77996172e-09
8.793878883e-09
8.810846574e-09
8.831066156e-09
8.854723834e-09
8.882017221e-09
8.913177173e-09
8.948467866e-09
8.98818102e-09
9.032634207e-09
9.082172185e-09
9.137167978e-09
9.198023056e-09
9.265167039e-09
9.339057243e-09
9.42017793e-09
9.509038845e-09
9.606172663e-09
9.712131005e-09
9.827478438e-09
9.952783654e-09
1.008860674e-08
1.023548106e-08
1.039388776e-08
1.056422e-08
1.074673314e-08
1.094147549e-08
1.114819252e-08
1.136619364e-08
1.159416707e-08
1.182992168e-08
1.207002566e-08
1.230929747e-08
1.254008299e-08
1.275122092e-08
1.292654324e-08
1.304269329e-08
1.306587168e-08
1.29472314e-08
1.261568885e-08
1.197103246e-08
1.086962348e-08
9.146049591e-09
6.582956724e-09
3.068922408e-09
-1.428215805e-09
8.786853028e-09
8.789112734e-09
8.794725151e-09
8.803799096e-09
8.816094797e-09
8.831594133e-09
8.850483045e-09
8.872982633e-09
8.899297469e-09
8.929645623e-09
8.964283581e-09
9.003507008e-09
9.047645093e-09
9.097059578e-09
9.152147338e-09
9.213342869e-09
9.281120056e-09
9.355993714e-09
9.438521383e-09
9.529305271e-09
9.628993999e-09
9.738283937e-09
9.857919927e-09
9.988695021e-09
1.013144862e-08
1.028706222e-08
1.045645155e-08
1.064055376e-08
1.084030707e-08
1.105661989e-08
1.129032456e-08
1.154210953e-08
1.181242012e-08
1.210131437e-08
1.240825336e-08
1.273179642e-08
1.306915532e-08
1.341553693e-08
1.376316295e-08
1.409977979e-08
1.440635221e-08
1.465332614e-08
1.479457407e-08
1.47561287e-08
1.441900117e-08
1.357429821e-08
1.190044114e-08
8.727649608e-09
3.550010409e-09
-4.863175151e-09
8.81523975e-09
8.81769762e-09
8.823802145e-09
8.833670951e-09
8.847041752e-09
8.863892922e-09
8.884424762e-09
8.908876036e-09
8.937468013e-09
8.970437457e-09
9.008064209e-09
9.050672599e-09
9.098625953e-09
9.152326348e-09
9.212218311e-09
9.278792702e-09
9.352589987e-09
9.434203589e-09
9.52428392e-09
9.623542997e-09
9.73275944e-09
9.852783806e-09
9.984544214e-09
1.012905211e-08
1.028740789e-08
1.046080588e-08
1.065053811e-08
1.085799575e-08
1.108466696e-08
1.133212885e-08
1.160203017e-08
1.189606005e-08
1.22158955e-08
1.256311738e-08
1.293907845e-08
1.334469964e-08
1.378015804e-08
1.424440993e-08
1.47344592e-08
1.524422422e-08
1.576275985e-08
1.627136913e-08
1.673882735e-08
1.711248404e-08
1.730254146e-08
1.713961488e-08
1.631145715e-08
1.398119047e-08
8.848798613e-09
-6.16190681e-09
8.838463361e-09
8.841082928e-09
8.847588991e-09
8.858106498e-09
8.872355077e-09
8.890310601e-09
8.912185522e-09
8.938233579e-09
8.968690351e-09
9.003808701e-09
9.043888534e-09
9.089278803e-09
9.140372187e-09
9.197605499e-09
9.261464362e-09
9.332488357e-09
9.411275643e-09
9.498487972e-09
9.594856754e-09
9.70119013e-09
9.818381028e-09
9.947416282e-09
1.008938693e-08
1.024549976e-08
1.041709014e-08
1.060563622e-08
1.081277419e-08
1.104031439e-08
1.129025767e-08
1.156481131e-08
1.18664025e-08