/*--------------------------------*- C++ -*----------------------------------*\
| =========                 |                                                 |
| \\      /  F ield         | foam-extend: Open Source CFD                    |
|  \\    /   O peration     | Version:     4.1                                |
|   \\  /    A nd           | Web:         http://www.foam-extend.org         |
|    \\/     M anipulation  |                                                 |
\*---------------------------------------------------------------------------*/
FoamFile
{
    version     2.0;
    format      ascii;
    class       surfaceScalarField;
    location    "10000";
    object      phi;
}
// * * * * * * * * * * * * * * * * * * * * * * * * * * * * * * * * * * * * * //

dimensions      [0 3 -1 0 0 0 0];

internalField   nonuniform List<scalar> 
31542
(
1.062548219e-07
3.075178057e-09
1.00623834e-07
5.630987945e-09
9.412160667e-08
6.502227323e-09
8.733982757e-08
6.781779109e-09
8.055921144e-08
6.780616148e-09
7.403849621e-08
6.520715267e-09
6.795113541e-08
6.08736083e-09
6.239184707e-08
5.559288354e-09
5.740574761e-08
4.986099458e-09
5.300302413e-08
4.402723449e-09
4.916924882e-08
3.833775275e-09
4.587182291e-08
3.297425887e-09
4.306618807e-08
2.805634851e-09
4.070164475e-08
2.364543344e-09
3.872567586e-08
1.975968923e-09
3.708686648e-08
1.638809398e-09
3.573681913e-08
1.350047332e-09
3.46313211e-08
1.105497975e-09
3.373093152e-08
9.003895042e-10
3.30011473e-08
7.297841561e-10
3.241228634e-08
5.888609232e-10
3.193918983e-08
4.730965005e-10
3.156081609e-08
3.783737465e-10
3.125978134e-08
3.010347625e-10
3.102187899e-08
2.379023744e-10
3.083559181e-08
1.862872046e-10
3.06916484e-08
1.439434334e-10
3.058260598e-08
1.090424673e-10
3.050239641e-08
8.020962379e-11
3.044632813e-08
5.606833742e-11
3.041083585e-08
3.549234048e-11
3.03930911e-08
1.774478062e-11
3.039146158e-08
1.629532084e-12
3.040205274e-08
-1.059116924e-11
3.042348204e-08
-2.142932001e-11
3.045412651e-08
-3.064450506e-11
3.049234595e-08
-3.821946496e-11
3.053657546e-08
-4.422953142e-11
3.058528291e-08
-4.870746651e-11
3.063693107e-08
-5.164816279e-11
3.068996046e-08
-5.302939689e-11
3.074278308e-08
-5.282260451e-11
3.079378149e-08
-5.099838405e-11
3.084131229e-08
-4.753075087e-11
3.08837101e-08
-4.239773526e-11
3.091922341e-08
-3.551323527e-11
3.094612094e-08
-2.689744808e-11
3.09628743e-08
-1.675328625e-11
3.096739666e-08
-4.522297441e-12
9.283916142e-12
3.095811278e-08
1.113827969e-07
1.022381143e-09
1.13995484e-07
3.018300863e-09
1.160870085e-07
4.410702864e-09
1.174677089e-07
5.40107866e-09
1.18096516e-07
6.151809004e-09
1.179685676e-07
6.648663695e-09
1.171770011e-07
6.878927332e-09
1.15849812e-07
6.886477432e-09
1.141133087e-07
6.722602836e-09
1.12085452e-07
6.430580232e-09
1.098712369e-07
6.047990446e-09
1.075594288e-07
5.60923395e-09
1.052217181e-07
5.143345425e-09
1.029138363e-07
4.672425102e-09
1.006771497e-07
4.212655479e-09
9.854075401e-08
3.775205034e-09
9.652363845e-08
3.367162943e-09
9.463676721e-08
2.992369295e-09
9.288497707e-08
2.652179727e-09
9.126860309e-08
2.346158197e-09
8.978480279e-08
2.072661263e-09
8.842859648e-08
1.82930282e-09
8.71936588e-08
1.613311424e-09
8.60729282e-08
1.421765361e-09
8.505906458e-08
1.251765988e-09
8.414468561e-08
1.100666177e-09
8.332257617e-08
9.66052857e-10
8.258583071e-08
8.457879004e-10
8.192803576e-08
7.380045363e-10
8.134304858e-08
6.410554865e-10
8.082497096e-08
5.535699393e-10
8.036824217e-08
4.744735718e-10
7.996689304e-08
4.029786783e-10
7.961759705e-08
3.387048352e-10
7.931541913e-08
2.807486245e-10
7.905609712e-08
2.286775164e-10
7.883562498e-08
1.822526906e-10
7.865011831e-08
1.412771364e-10
7.849581183e-08
1.055989939e-10
7.836903993e-08
7.512369653e-11
7.82662055e-08
4.980497515e-11
7.818376015e-08
2.962266856e-11
7.811819428e-08
1.45673902e-11
7.80660497e-08
4.613718665e-12
7.80240411e-08
-3.892534881e-13
7.798853302e-08
-5.272916891e-15
7.795598672e-08
5.648749814e-12
7.792299917e-08
1.623418443e-11
7.788653857e-08
3.193827071e-11
5.261810011e-11
7.784320438e-08
1.096494727e-07
7.029084015e-10
1.107409507e-07
1.926822947e-09
1.122091884e-07
2.942465114e-09
1.138742691e-07
3.735998063e-09
1.156466427e-07
4.379435351e-09
1.173983141e-07
4.896992341e-09
1.190038792e-07
5.2733622e-09
1.203825501e-07
5.507806492e-09
1.214896801e-07
5.61547282e-09
1.223069089e-07
5.613351408e-09
1.228370801e-07
5.517819281e-09
1.230997518e-07
5.346562279e-09
1.231251157e-07
5.117981629e-09
1.229481965e-07
4.84934428e-09
1.226051047e-07
4.555747193e-09
1.221305408e-07
4.249768951e-09
1.215563018e-07
3.941401865e-09
1.209104762e-07
3.638194824e-09
1.202171588e-07
3.345497122e-09
1.194965178e-07
3.066799177e-09
1.187650737e-07
2.80410539e-09
1.180360893e-07
2.55828729e-09
1.173200076e-07
2.329393058e-09
1.166248675e-07
2.116905507e-09
1.15956675e-07
1.919958551e-09
1.153198258e-07
1.737515428e-09
1.147174072e-07
1.568471474e-09
1.141514627e-07
1.411732455e-09
1.136231965e-07
1.26627079e-09
1.131330955e-07
1.131156504e-09
1.126810829e-07
1.005582496e-09
1.122666666e-07
8.888898414e-10
1.118890828e-07
7.805625094e-10
1.115475449e-07
6.802426492e-10
1.112406737e-07
5.876197828e-10
1.109669199e-07
5.024312973e-10
1.107246341e-07
4.245385345e-10
1.10512027e-07
3.53884283e-10
1.103271708e-07
2.904551907e-10
1.101680057e-07
2.342888171e-10
1.100323478e-07
1.854629156e-10
1.099179021e-07
1.44068457e-10
1.098222801e-07
1.10189418e-10
1.097430203e-07
8.387364359e-11
1.096773784e-07
6.525267376e-11
1.096228128e-07
5.456045652e-11
1.095766748e-07
5.178678177e-11
1.095360236e-07
5.688534642e-11
1.094980555e-07
6.990647403e-11
9.081525307e-11
1.094598583e-07
1.09567522e-07
4.653863943e-10
1.100988671e-07
1.395477755e-09
1.108258817e-07
2.215450496e-09
1.116755291e-07
2.886350662e-09
1.126349824e-07
3.419982093e-09
1.13694214e-07
3.837760773e-09
1.14820589e-07
4.146987238e-09
1.159749951e-07
4.353400406e-09
1.171214254e-07
4.469042458e-09
1.182272505e-07
4.507526313e-09
1.192643861e-07
4.48068361e-09
1.202116674e-07
4.39928098e-09
1.21055761e-07
4.273888046e-09
1.217904757e-07
4.11462966e-09
1.224155949e-07
3.930628044e-09
1.229355572e-07
3.729806678e-09
1.23358092e-07
3.518867123e-09
1.236929781e-07
3.303308658e-09
1.239510031e-07
3.087472165e-09
1.241431684e-07
2.874633904e-09
1.242801314e-07
2.667142342e-09
1.243718455e-07
2.466573205e-09
1.244273543e-07
2.273884275e-09
1.244546993e-07
2.089560471e-09
1.244609141e-07
1.913743737e-09
1.244520835e-07
1.746346054e-09
1.244334147e-07
1.587140246e-09
1.244093194e-07
1.435827668e-09
1.243835002e-07
1.292089983e-09
1.243590308e-07
1.155625911e-09
1.243384351e-07
1.026178203e-09
1.243237669e-07
9.035581055e-10
1.243166717e-07
7.87657729e-10
1.2431846e-07
6.784542716e-10
1.24330097e-07
5.759827926e-10
1.24352227e-07
4.803012954e-10
1.243852371e-07
3.915284693e-10
1.244292898e-07
3.098315643e-10
1.244843438e-07
2.354011494e-10
1.245500822e-07
1.685503934e-10
1.246259746e-07
1.095705537e-10
1.247112905e-07
5.875250166e-11
1.248049954e-07
1.648448112e-11
1.249060384e-07
-1.716930934e-11
1.250132756e-07
-4.198457992e-11
1.251254126e-07
-5.757652316e-11
1.25241074e-07
-6.38746004e-11
1.253586818e-07
-6.07224496e-11
1.254765541e-07
-4.796584571e-11
-2.54812926e-11
1.255928507e-07
1.094425843e-07
3.528021057e-10
1.097721632e-07
1.065898807e-09
1.102689693e-07
1.7186444e-09
1.108796026e-07
2.275717281e-09
1.115667969e-07
2.732787797e-09
1.123072091e-07
3.097348549e-09
1.130797029e-07
3.374493405e-09
1.138653672e-07
3.567736152e-09
1.14650389e-07
3.684020755e-09
1.154246681e-07
3.733247174e-09
1.161797304e-07
3.725621319e-09
1.169083199e-07
3.67069149e-09
1.176047322e-07
3.57747579e-09
1.182649725e-07
3.454389326e-09
1.188866605e-07
3.308939995e-09
1.194688951e-07
3.14757211e-09
1.200120804e-07
2.975681844e-09
1.205177013e-07
2.797687816e-09
1.209880648e-07
2.617108695e-09
1.214260446e-07
2.436654167e-09
1.218348529e-07
2.258334009e-09
1.222178508e-07
2.083575345e-09
1.225783982e-07
1.913336859e-09
1.229197446e-07
1.748214076e-09
1.232449549e-07
1.588533455e-09
1.235568661e-07
1.434434845e-09
1.238580658e-07
1.285940515e-09
1.241508848e-07
1.143008624e-09
1.244374017e-07
1.005573102e-09
1.247194516e-07
8.735759503e-10
1.24998639e-07
7.469908324e-10
1.252763566e-07
6.258404669e-10
1.255538097e-07
5.102046156e-10
1.258320429e-07
4.002210668e-10
1.261119032e-07
2.96122542e-10
1.26394084e-07
1.981205056e-10
1.266790833e-07
1.065291339e-10
1.269670989e-07
2.181601013e-11
1.272583113e-07
-5.581115503e-11
1.275527106e-07
-1.258489038e-10
1.278502606e-07
-1.879794444e-10
1.281508275e-07
-2.418143638e-10
1.284542571e-07
-2.869450665e-10
1.287600967e-07
-3.230089114e-10
1.2906769e-07
-3.495778906e-10
1.293763288e-07
-3.662152972e-10
1.296850564e-07
-3.726021977e-10
1.299928026e-07
-3.684686515e-10
1.302984189e-07
-3.535820997e-10
-3.277695612e-10
1.306007071e-07
1.094073567e-07
2.754454267e-10
1.096443292e-07
8.289262258e-10
1.100157644e-07
1.347209281e-09
1.10486136e-07
1.80534559e-09
1.110255654e-07
2.193358465e-09
1.116120272e-07
2.510886669e-09
1.122270131e-07
2.759507481e-09
1.128538095e-07
2.940939783e-09
1.134789502e-07
3.058880022e-09
1.140927804e-07
3.11941702e-09
1.146886719e-07
3.129729884e-09
1.152622923e-07
3.097071111e-09
1.158112537e-07
3.028514431e-09
1.163347882e-07
2.930854817e-09
1.168333387e-07
2.810389479e-09
1.173081916e-07
2.672719235e-09
1.177612043e-07
2.522669149e-09
1.181945998e-07
2.364292399e-09
1.186107999e-07
2.200908622e-09
1.190122921e-07
2.035161982e-09
1.19401528e-07
1.869098046e-09
1.197808509e-07
1.704252451e-09
1.201524461e-07
1.541741685e-09
1.205183107e-07
1.382349402e-09
1.20880239e-07
1.226605219e-09
1.212398193e-07
1.074854482e-09
1.215984419e-07
9.273179555e-10
1.219573101e-07
7.841403961e-10
1.223174541e-07
6.454290993e-10
1.226797447e-07
5.112853777e-10
1.230449048e-07
3.818306758e-10
1.234135234e-07
2.572218611e-10
1.237860816e-07
1.376464666e-10
1.24163034e-07
2.326866785e-11
1.245445046e-07
-8.534804535e-11
1.249307122e-07
-1.88087166e-10
1.253217589e-07
-2.845175195e-10
1.257178025e-07
-3.742275788e-10
1.261187771e-07
-4.567858204e-10
1.265245647e-07
-5.316364444e-10
1.269348353e-07
-5.98250065e-10
1.27349136e-07
-6.561151029e-10
1.277669102e-07
-7.047191697e-10
1.281874583e-07
-7.435570205e-10
1.286100115e-07
-7.721310916e-10
1.290337611e-07
-7.899649509e-10
1.294577833e-07
-7.966243693e-10
1.298810473e-07
-7.917326134e-10
1.303024309e-07
-7.749656637e-10
-7.460570995e-10
1.307207184e-07
1.093884277e-07
2.170176791e-10
1.095639159e-07
6.534380165e-10
1.098435704e-07
1.067554819e-09
1.102071169e-07
1.441799015e-09
1.106346055e-07
1.765869919e-09
1.111092399e-07
2.036252236e-09
1.116162618e-07
2.252485644e-09
1.121419613e-07
2.415240198e-09
1.126743035e-07
2.526537828e-09
1.132036842e-07
2.5900363e-09
1.137229219e-07
2.610492273e-09
1.142269178e-07
2.593075142e-09
1.147124048e-07
2.543027486e-09
1.151777367e-07
2.46552296e-09
1.156226159e-07
2.365510328e-09
1.16047786e-07
2.247549082e-09
1.164547498e-07
2.115705449e-09
1.168455271e-07
1.973515095e-09
1.172224514e-07
1.823984274e-09
1.175880012e-07
1.669612223e-09
1.179446684e-07
1.512430847e-09
1.182948628e-07
1.354058031e-09
1.186408463e-07
1.195758206e-09
1.189846915e-07
1.038504163e-09
1.193282601e-07
8.830366464e-10
1.196731953e-07
7.299193392e-10
1.200209249e-07
5.795882817e-10
1.20372671e-07
4.323942933e-10
1.207294631e-07
2.88637066e-10
1.210921561e-07
1.485923612e-10
1.214614646e-07
1.252217067e-11
1.218379409e-07
-1.192544161e-10
1.222220064e-07
-2.464190859e-10
1.226138686e-07
-3.685935294e-10
1.230138485e-07
-4.853279192e-10
1.23421966e-07
-5.962046685e-10
1.238381741e-07
-7.007256366e-10
1.242622977e-07
-7.983511144e-10
1.246940273e-07
-8.885154505e-10
1.251330091e-07
-9.706182491e-10
1.255787929e-07
-1.044033869e-09
1.260308114e-07
-1.108133563e-09
1.26488384e-07
-1.162291866e-09
1.269507205e-07
-1.205893442e-09
1.274169318e-07
-1.238342459e-09
1.278860374e-07
-1.259070502e-09
1.283569608e-07
-1.267547741e-09
1.288285288e-07
-1.263300598e-09
1.292994833e-07
-1.245920217e-09
-1.215067906e-09
1.297684942e-07
1.093745882e-07
1.724294703e-10
1.095088226e-07
5.192036742e-10
1.09725735e-07
8.506424024e-10
1.100133891e-07
1.154144862e-09
1.103581378e-07
1.421121214e-09
1.107470562e-07
1.647333827e-09
1.111683754e-07
1.831166401e-09
1.116112845e-07
1.972331185e-09
1.12066141e-07
2.071681313e-09
1.125248774e-07
2.131299857e-09
1.129811169e-07
2.154252842e-09
1.134300364e-07
2.144155579e-09
1.138682085e-07
2.104855437e-09
1.142934723e-07
2.040259138e-09
1.147047826e-07
1.954200042e-09
1.151020216e-07
1.850310076e-09
1.154858044e-07
1.731922682e-09
1.158572989e-07
1.602020615e-09
1.162180656e-07
1.463217524e-09
1.165699177e-07
1.317760195e-09
1.169148024e-07
1.167546073e-09
1.172547074e-07
1.014153126e-09
1.175915871e-07
8.588784985e-10
1.179273106e-07
7.027806603e-10
1.182636251e-07
5.467221605e-10
1.186021326e-07
3.9141185e-10
1.189442745e-07
2.374463452e-10
1.192913367e-07
8.533211145e-11
1.196444459e-07
-6.447205211e-11
1.200045629e-07
-2.115246376e-10
1.20372471e-07
-3.553859745e-10
1.207488218e-07
-4.956052004e-10
1.211341226e-07
-6.317198441e-10
1.215287565e-07
-7.632274977e-10
1.219330106e-07
-8.895819932e-10
1.223470068e-07
-1.010200937e-09
1.227707471e-07
-1.124465941e-09
1.232041129e-07
-1.231716892e-09
1.236468587e-07
-1.331261275e-09
1.240986182e-07
-1.422377763e-09
1.245589048e-07
-1.504320511e-09
1.250271063e-07
-1.576335099e-09
1.255024856e-07
-1.637671098e-09
1.259841833e-07
-1.687591172e-09
1.264712215e-07
-1.725380668e-09
1.269625094e-07
-1.750358378e-09
1.274568513e-07
-1.761889651e-09
1.279529513e-07
-1.759400569e-09
1.2844942e-07
-1.742388871e-09
-1.710431976e-09
1.289447841e-07
1.093652429e-07
1.371865654e-10
1.094714708e-07
4.129758428e-10
1.096444029e-07
6.777102892e-10
1.0987638e-07
9.221677899e-10
1.101579753e-07
1.139525865e-09
1.104796085e-07
1.325700625e-09
1.108322378e-07
1.478537094e-09
1.112074645e-07
1.597104511e-09
1.115976564e-07
1.681489416e-09
1.119961877e-07
1.732768476e-09
1.12397593e-07
1.752847568e-09
1.127975628e-07
1.744185769e-09
1.131928681e-07
1.709550141e-09
1.135812748e-07
1.651852427e-09
1.139614447e-07
1.574030114e-09
1.143328129e-07
1.478941887e-09
1.146954532e-07
1.369282443e-09
1.150499472e-07
1.247526596e-09
1.153972642e-07
1.115900492e-09
1.157386528e-07
9.763716394e-10
1.160755456e-07
8.306533001e-10
1.164094793e-07
6.802194242e-10
1.167420294e-07
5.263283328e-10
1.170747592e-07
3.700509487e-10
1.174091789e-07
2.123024222e-10
1.177467322e-07
5.385856095e-11
1.180887428e-07
-1.045641765e-10
1.184364309e-07
-2.623560183e-10
1.187908883e-07
-4.189293654e-10
1.191530826e-07
-5.737189551e-10
1.195238626e-07
-7.261659791e-10
1.199039538e-07
-8.756963822e-10
1.202939459e-07
-1.021711987e-09
1.206943006e-07
-1.163582213e-09
1.211053541e-07
-1.30063548e-09
1.215273112e-07
-1.432158086e-09
1.219602424e-07
-1.557397155e-09
1.224040841e-07
-1.675558616e-09
1.228586342e-07
-1.785811335e-09
1.233235501e-07
-1.887293734e-09
1.237983514e-07
-1.979121767e-09
1.242824169e-07
-2.06040066e-09
1.247749833e-07
-2.130237434e-09
1.252751448e-07
-2.187752706e-09
1.257818571e-07
-2.232092971e-09
1.262939428e-07
-2.262444125e-09
1.268100989e-07
-2.278045712e-09
1.273289032e-07
-2.278204812e-09
1.278488232e-07
-2.262308944e-09
-2.229837402e-09
1.283682287e-07
1.093585481e-07
1.086384292e-10
1.094445117e-07
3.270123384e-10
1.095850605e-07
5.371614275e-10
1.097750829e-07
7.321454006e-10
1.100080567e-07
9.065521016e-10
1.102770035e-07
1.056753837e-09
1.105750461e-07
1.180494521e-09
1.10895628e-07
1.276522526e-09
1.112326669e-07
1.344450526e-09
1.115807402e-07
1.384695123e-09
1.119352321e-07
1.398355722e-09
1.122923826e-07
1.38703522e-09
1.126492675e-07
1.352665216e-09
1.130037492e-07
1.297370698e-09
1.133544132e-07
1.223366146e-09
1.137004873e-07
1.13286778e-09
1.14041749e-07
1.02802077e-09
1.143784296e-07
9.108459579e-10
1.147111224e-07
7.832076982e-10
1.150406979e-07
6.467961876e-10
1.153682281e-07
5.031230831e-10
1.156949199e-07
3.535276451e-10
1.160220525e-07
1.991957106e-10
1.163509528e-07
4.115070022e-11
1.166829247e-07
-1.196694391e-10
1.170192393e-07
-2.824560304e-10
1.17361125e-07
-4.464499268e-10
1.177097243e-07
-6.109552314e-10
1.180660987e-07
-7.753037811e-10
1.184312164e-07
-9.388366414e-10
1.188059409e-07
-1.100890474e-09
1.191910275e-07
-1.260782981e-09
1.195871172e-07
-1.417801749e-09
1.199947312e-07
-1.571196157e-09
1.204142662e-07
-1.720170566e-09
1.208459896e-07
-1.863881466e-09
1.212900303e-07
-2.001437882e-09
1.217463743e-07
-2.13190264e-09
1.222148594e-07
-2.254296392e-09
1.226951703e-07
-2.367604672e-09
1.231868356e-07
-2.47078708e-09
1.236892237e-07
-2.562788743e-09
1.242015399e-07
-2.642553665e-09
1.247228263e-07
-2.70903912e-09
1.252519642e-07
-2.761230846e-09
1.257876791e-07
-2.798159033e-09
1.263285481e-07
-2.818914665e-09
1.268730089e-07
-2.822665605e-09
1.274193718e-07
-2.808671878e-09
-2.776299437e-09
1.279658338e-07
1.093535268e-07
8.511162208e-11
1.094243348e-07
2.562043809e-10
1.095404846e-07
4.210116107e-10
1.09698457e-07
5.741729784e-10
1.098936451e-07
7.113640153e-10
1.101209269e-07
8.294720624e-10
1.103750704e-07
9.263510019e-10
1.106509663e-07
1.000626591e-09
1.109437913e-07
1.051625539e-09
1.112491606e-07
1.079325797e-09
1.115632481e-07
1.084268265e-09
1.118828488e-07
1.067434422e-09
1.12205391e-07
1.030123009e-09
1.125289171e-07
9.738445777e-10
1.128520485e-07
9.002348115e-10
1.131739351e-07
8.109811728e-10
1.134941935e-07
7.077623202e-10
1.138128396e-07
5.921999202e-10
1.141302193e-07
4.658279455e-10
1.144469453e-07
3.30070179e-10
1.147638294e-07
1.862390339e-10
1.150818614e-07
3.54956519e-11
1.154020898e-07
-1.210326708e-10
1.15725653e-07
-2.824125121e-10
1.160537199e-07
-4.477362944e-10
1.163874472e-07
-6.161833059e-10
1.167279783e-07
-7.869810065e-10
1.170764111e-07
-9.593881116e-10
1.174337861e-07
-1.132678703e-09
1.178010742e-07
-1.306124758e-09
1.181791653e-07
-1.478981623e-09
1.185688578e-07
-1.650475431e-09
1.189708484e-07
-1.819792339e-09
1.193857224e-07
-1.986070221e-09
1.198139446e-07
-2.148392687e-09
1.202558489e-07
-2.305785848e-09
1.20711629e-07
-2.457217973e-09
1.21181328e-07
-2.601601557e-09
1.216648295e-07
-2.737797927e-09
1.221618496e-07
-2.864624753e-09
1.226719288e-07
-2.98086631e-09
1.231944264e-07
-3.085286304e-09
1.237285158e-07
-3.176643052e-09
1.242731831e-07
-3.253706444e-09
1.248272284e-07
-3.315276197e-09
1.253892704e-07
-3.360201027e-09
1.259577539e-07
-3.387398233e-09
1.265309613e-07
-3.395872997e-09
1.271070261e-07
-3.384736637e-09
-3.35322311e-09
1.276839498e-07
1.09349671e-07
6.544062899e-11
1.094088562e-07
1.970192283e-10
1.095061835e-07
3.236843493e-10
1.096391544e-07
4.41202064e-10
1.098044444e-07
5.460740007e-10
1.099982637e-07
6.356527439e-10
1.102166393e-07
7.079754177e-10
1.104556086e-07
7.616572034e-10
1.107113668e-07
7.958673903e-10
1.109803915e-07
8.103010237e-10
1.112595444e-07
8.051153703e-10
1.115461344e-07
7.80844447e-10
1.118379461e-07
7.383112417e-10
1.121332422e-07
6.785485054e-10
1.124307472e-07
6.02729792e-10
1.127296193e-07
5.121090737e-10
1.13029411e-07
4.079707011e-10
1.13330023e-07
2.915879162e-10
1.136316392e-07
1.642117544e-10
1.139347341e-07
2.697528845e-11
1.142399262e-07
-1.189530301e-10
1.145480178e-07
-2.725959935e-10
1.148599551e-07
-4.329699753e-10
1.151767329e-07
-5.991902953e-10
1.154994152e-07
-7.704185761e-10
1.158290891e-07
-9.458572405e-10
1.161668458e-07
-1.124737729e-09
1.165137616e-07
-1.306303929e-09
1.168708802e-07
-1.489797263e-09
1.172391972e-07
-1.674441812e-09
1.176196463e-07
-1.859430636e-09
1.180130846e-07
-2.043913767e-09
1.184202801e-07
-2.226987849e-09
1.188418977e-07
-2.407687798e-09
1.192784858e-07
-2.584980752e-09
1.197304625e-07
-2.757762558e-09
1.201981017e-07
-2.924857068e-09
1.206815184e-07
-3.085018304e-09
1.211806561e-07
-3.236935604e-09
1.216952733e-07
-3.379241979e-09
1.222249328e-07
-3.510525724e-09
1.227689916e-07
-3.629345172e-09
1.233265949e-07
-3.734246337e-09
1.238966714e-07
-3.823783008e-09
1.24477934e-07
-3.896538752e-09
1.250688832e-07
-3.951150228e-09
1.25667816e-07
-3.986331065e-09
1.262728384e-07
-4.000895439e-09
1.268818821e-07
-3.99378037e-09
-3.964065834e-09
1.274927248e-07
1.093466394e-07
4.880123455e-11
1.093966912e-07
1.469674383e-10
1.094791609e-07
2.412146442e-10
1.095922351e-07
3.281278583e-10
1.097334761e-07
4.048330396e-10
1.099000572e-07
4.690715859e-10
1.10088956e-07
5.190765988e-10
1.102971017e-07
5.535115496e-10
1.10521497e-07
5.714720677e-10
1.107593236e-07
5.724744398e-10
1.110080276e-07
5.564113523e-10
1.112653794e-07
5.234926471e-10
1.115295073e-07
4.741833361e-10
1.117989111e-07
4.09144754e-10
1.120724597e-07
3.291812225e-10
1.123493753e-07
2.351934306e-10
1.126292046e-07
1.28141426e-10
1.129118479e-07
8.944693698e-12
1.131973584e-07
-1.212987775e-10
1.134861011e-07
-2.61767385e-10
1.137786423e-07
-4.114943115e-10
1.140756684e-07
-5.696220799e-10
1.143780173e-07
-7.35318837e-10
1.146866151e-07
-9.07788066e-10
1.150024605e-07
-1.086264006e-09
1.153266018e-07
-1.269998568e-09
1.156601139e-07
-1.458249855e-09
1.160040789e-07
-1.650268969e-09
1.16359568e-07
-1.845286304e-09
1.167276241e-07
-2.042497935e-09
1.171092461e-07
-2.241052575e-09
1.175053719e-07
-2.440039588e-09
1.179168625e-07
-2.638478417e-09
1.183444845e-07
-2.835309778e-09
1.187888928e-07
-3.029389023e-09
1.192506123e-07
-3.219482037e-09
1.197300193e-07
-3.404264034e-09
1.202273226e-07
-3.582321576e-09
1.20742545e-07
-3.75215807e-09
1.212755061e-07
-3.912203015e-09
1.218258055e-07
-4.060825161e-09
1.223928099e-07
-4.196349552e-09
1.229756418e-07
-4.317078286e-09
1.235731733e-07
-4.421314571e-09
1.241840241e-07
-4.50738947e-09
1.248065643e-07
-4.573690534e-09
1.254389246e-07
-4.618691334e-09
1.260790098e-07
-4.64098072e-09
1.2672452e-07
-4.639290534e-09
-4.612520487e-09
1.273729746e-07
1.093442019e-07
3.459937236e-11
1.093869182e-07
1.04251074e-10
1.094574156e-07
1.707172215e-10
1.095543557e-07
2.311877957e-10
1.096759266e-07
2.832621328e-10
1.098200013e-07
3.249968541e-10
1.09984271e-07
3.548069575e-10
1.101663549e-07
3.714276527e-10
1.103638968e-07
3.739301282e-10
1.105746522e-07
3.617190445e-10
1.107965596e-07
3.345039914e-10
1.110277935e-07
2.922587381e-10
1.112667991e-07
2.351777588e-10
1.115123103e-07
1.636336166e-10
1.11763358e-07
7.813349588e-11
1.1201928e-07
-2.072847871e-11
1.122796549e-07
-1.322334868e-10
1.12544312e-07
-2.557124293e-10
1.128134098e-07
-3.903965355e-10
1.130872154e-07
-5.355729839e-10
1.133662311e-07
-6.905100678e-10
1.136511017e-07
-8.544926568e-10
1.139426069e-07
-1.02682406e-09
1.142416376e-07
-1.206818717e-09
1.145491709e-07
-1.393797332e-09
1.1486625e-07
-1.587077677e-09
1.151939639e-07
-1.785963771e-09
1.155334288e-07
-1.989733894e-09
1.158857702e-07
-2.197627636e-09
1.162521048e-07
-2.408832544e-09
1.166335231e-07
-2.622470903e-09
1.170310707e-07
-2.837587166e-09
1.174457288e-07
-3.053136497e-09
1.17878394e-07
-3.267974902e-09
1.183298564e-07
-3.480851418e-09
1.188007772e-07
-3.690402877e-09
1.192916649e-07
-3.895151747e-09
1.198028509e-07
-4.093507566e-09
1.203344653e-07
-4.283772436e-09
1.208864133e-07
-4.464150991e-09
1.214583533e-07
-4.632765169e-09
1.220496776e-07
-4.787673896e-09
1.226594969e-07
-4.926897603e-09
1.232866295e-07
-5.048447201e-09
1.239295968e-07
-5.150356823e-09
1.245866256e-07
-5.230719323e-09
1.252556575e-07
-5.28772325e-09
1.259343665e-07
-5.319689712e-09
1.266201834e-07
-5.325107386e-09
-5.302663826e-09
1.273103267e-07
1.093421989e-07
2.240044736e-11
1.093789031e-07
6.754692745e-11
1.094395611e-07
1.1005918e-10
1.095231702e-07
1.475787111e-10
1.096283694e-07
1.780628536e-10
1.097535475e-07
1.998188432e-10
1.09896934e-07
2.114204304e-10
1.100566802e-07
2.116814216e-10
1.102309362e-07
1.996741666e-10
1.104179231e-07
1.74732144e-10
1.106159922e-07
1.364348997e-10
1.108236643e-07
8.458673711e-11
1.110396695e-07
1.917251486e-11
1.112629637e-07
-5.966055773e-11
1.114927417e-07
-1.516444868e-10
1.117284244e-07
-2.564111288e-10
1.119697043e-07
-3.735133258e-10
1.122164611e-07
-5.02469211e-10
1.124688175e-07
-6.427529795e-10
1.127270671e-07
-7.938226225e-10
1.129916856e-07
-9.551285382e-10
1.132633065e-07
-1.126113539e-09
1.135426993e-07
-1.306216915e-09
1.138307517e-07
-1.494871131e-09
1.141284504e-07
-1.691496033e-09
1.144368635e-07
-1.895490718e-09
1.147571229e-07
-2.106223216e-09
1.150904076e-07
-2.32301854e-09
1.154379255e-07
-2.545145551e-09
1.158008961e-07
-2.771803062e-09
1.161805309e-07
-3.002105696e-09
1.165780137e-07
-3.23507001e-09
1.169944786e-07
-3.469601418e-09
1.174309862e-07
-3.704482464e-09
1.178884978e-07
-3.938363047e-09
1.183678482e-07
-4.169753237e-09
1.188697158e-07
-4.397019406e-09
1.193945926e-07
-4.618384364e-09
1.199427524e-07
-4.831932253e-09
1.205142202e-07
-5.035618833e-09
1.211087428e-07
-5.227287736e-09
1.217257619e-07
-5.404693007e-09
1.223643923e-07
-5.565528014e-09
1.230234055e-07
-5.707460423e-09
1.237012212e-07
-5.828172507e-09
1.243959074e-07
-5.925405554e-09
1.251051909e-07
-5.997006685e-09
1.258264772e-07
-6.040975962e-09
1.265568811e-07
-6.055511349e-09
-6.039048912e-09
1.272932662e-07
1.093405109e-07
1.188952003e-11
1.093721873e-07
3.587051743e-11
1.094246002e-07
5.764632809e-11
1.094969871e-07
7.519176508e-11
1.095883135e-07
8.673648588e-11
1.096973531e-07
9.077917722e-11
1.098227596e-07
8.601395066e-11
1.099630847e-07
7.135632592e-11
1.101168781e-07
4.588086678e-11
1.102827308e-07
8.879453848e-12
1.104593397e-07
-4.017397035e-11
1.106455161e-07
-1.015897248e-10
1.108402366e-07
-1.755478765e-10
1.110426608e-07
-2.620847334e-10
1.112521409e-07
-3.61124629e-10
1.114682307e-07
-4.725008498e-10
1.116906919e-07
-5.959745767e-10
1.119194762e-07
-7.312535041e-10
1.121547287e-07
-8.780055234e-10
1.123967744e-07
-1.03586834e-09
1.126461048e-07
-1.204458869e-09
1.129033662e-07
-1.383374922e-09
1.131693452e-07
-1.572195884e-09
1.134449541e-07
-1.770480087e-09
1.13731217e-07
-1.977758869e-09
1.140292545e-07
-2.193528184e-09
1.143402693e-07
-2.417238024e-09
1.146655307e-07
-2.64827992e-09
1.15006358e-07
-2.885972885e-09
1.153641032e-07
-3.129548234e-09
1.157401312e-07
-3.378133736e-09
1.161357988e-07
-3.630737607e-09
1.165524303e-07
-3.886232907e-09
1.169912908e-07
-4.143342983e-09
1.174535564e-07
-4.400628674e-09
1.179402813e-07
-4.656478111e-09
1.184523618e-07
-4.909100015e-09
1.18990499e-07
-5.15652149e-09
1.19555158e-07
-5.39659133e-09
1.20146529e-07
-5.626989874e-09
1.207644876e-07
-5.845246294e-09
1.214085586e-07
-6.048764006e-09
1.220778851e-07
-6.234854525e-09
1.227712043e-07
-6.400779634e-09
1.23486833e-07
-6.543801168e-09
1.242226644e-07
-6.661236996e-09
1.249761788e-07
-6.750520978e-09
1.257444669e-07
-6.809264031e-09
1.265242684e-07
-6.835312865e-09
-6.826802614e-09
1.273120221e-07
1.093390801e-07
2.809414013e-12
1.093664753e-07
8.475296215e-12
1.094118485e-07
1.227313572e-11
1.094746235e-07
1.241673633e-11
1.095539966e-07
7.363386896e-12
1.096490018e-07
-4.225991702e-12
1.097586697e-07
-2.365391673e-11
1.098818294e-07
-5.180336401e-11
1.100173602e-07
-8.964987986e-11
1.101641651e-07
-1.379254781e-10
1.103211961e-07
-1.972049578e-10
1.104875212e-07
-2.679148543e-10
1.106623296e-07
-3.503561981e-10
1.108449595e-07
-4.447146119e-10
1.110349112e-07
-5.510763928e-10
1.112318562e-07
-6.694457775e-10
1.114356416e-07
-7.997600104e-10
1.116462908e-07
-9.419027183e-10
1.118640007e-07
-1.095715472e-09
1.120891377e-07
-1.261005295e-09
1.123222292e-07
-1.437550315e-09
1.125639561e-07
-1.625101858e-09
1.128151439e-07
-1.823383682e-09
1.130767524e-07
-2.03208852e-09
1.133498653e-07
-2.250871714e-09
1.136356793e-07
-2.47934215e-09
1.13935492e-07
-2.717050789e-09
1.142506891e-07
-2.963476998e-09
1.145827292e-07
-3.218012963e-09
1.149331275e-07
-3.47994652e-09
1.153034365e-07
-3.748442798e-09
1.156952241e-07
-4.022525171e-09
1.161100473e-07
-4.301056108e-09
1.165494229e-07
-4.582718618e-09
1.170147933e-07
-4.865999138e-09
1.175074881e-07
-5.149172878e-09
1.180286808e-07
-5.43029277e-09
1.185793427e-07
-5.707183358e-09
1.191601924e-07
-5.97744106e-09
1.197716448e-07
-6.238442285e-09
1.204137593e-07
-6.487360828e-09
1.21086191e-07
-6.721195748e-09
1.21788147e-07
-6.936810511e-09
1.225183511e-07
-7.130983636e-09
1.232750201e-07
-7.300470238e-09
1.240558561e-07
-7.442072956e-09
1.248580546e-07
-7.552719519e-09
1.256783337e-07
-7.629543063e-09
1.265129811e-07
-7.66996029e-09
-7.671741919e-09
1.273579205e-07
1.093379187e-07
-5.109321582e-12
1.093616067e-07
-1.521268995e-11
1.094008459e-07
-2.696605622e-11
1.094551991e-07
-4.19364638e-11
1.095240804e-07
-6.151790562e-11
1.096067869e-07
-8.693249156e-11
1.097024253e-07
-1.192922562e-10
1.098101883e-07
-1.595664018e-10
1.09929185e-07
-2.086465419e-10
1.100585512e-07
-2.672917299e-10
1.101974751e-07
-3.361288081e-10
1.103452266e-07
-4.156663516e-10
1.105011772e-07
-5.063067665e-10
1.106648202e-07
-6.083576134e-10
1.108357866e-07
-7.220428742e-10
1.110138561e-07
-8.475152536e-10
1.111989639e-07
-9.848678039e-10
1.113912053e-07
-1.134144138e-09
1.115908367e-07
-1.295346841e-09
1.117982748e-07
-1.468443414e-09
1.120140944e-07
-1.653369896e-09
1.122390246e-07
-1.850031952e-09
1.124739441e-07
-2.058303168e-09
1.127198762e-07
-2.278020598e-09
1.12977982e-07
-2.508977484e-09
1.13249553e-07
-2.750913203e-09
1.135360028e-07
-3.003500578e-09
1.138388565e-07
-3.266330645e-09
1.141597385e-07
-3.538895009e-09
1.14500358e-07
-3.820566046e-09
1.148624905e-07
-4.110575251e-09
1.152479555e-07
-4.407990211e-09
1.156585901e-07
-4.711690765e-09
1.160962166e-07
-5.020345088e-09
1.165626041e-07
-5.33238667e-09
1.170594246e-07
-5.645993352e-09
1.175882017e-07
-5.959069889e-09
1.181502541e-07
-6.269235761e-09
1.187466332e-07
-6.573820195e-09
1.193780574e-07
-6.869866493e-09
1.200448444e-07
-7.154147816e-09
1.207468451e-07
-7.423196439e-09
1.214833826e-07
-7.67334806e-09
1.22253201e-07
-7.900802043e-09
1.230544282e-07
-8.101697404e-09
1.238845583e-07
-8.272203017e-09
1.247404575e-07
-8.408618782e-09
1.256183971e-07
-8.507482632e-09
1.265141132e-07
-8.565676454e-09
-8.580522655e-09
1.274228939e-07
1.093368417e-07
-1.195106861e-11
1.093572522e-07
-3.562309728e-11