/*--------------------------------*- C++ -*----------------------------------*\
| =========                 |                                                 |
| \\      /  F ield         | foam-extend: Open Source CFD                    |
|  \\    /   O peration     | Version:     4.1                                |
|   \\  /    A nd           | Web:         http://www.foam-extend.org         |
|    \\/     M anipulation  |                                                 |
\*---------------------------------------------------------------------------*/
FoamFile
{
    version     2.0;
    format      ascii;
    class       volVectorField;
    location    "10000";
    object      U;
}
// * * * * * * * * * * * * * * * * * * * * * * * * * * * * * * * * * * * * * //

dimensions      [0 1 -1 0 0 0 0];

internalField   nonuniform List<vector> 
15920
(
(0.000213243457 5.117201237e-06 0)
(0.0002058619865 1.129902964e-05 0)
(0.0001957601413 1.371159045e-05 0)
(0.0001822490962 1.418943718e-05 0)
(0.0001678648932 1.373818646e-05 0)
(0.0001542597228 1.266546826e-05 0)
(0.0001416972976 1.115591237e-05 0)
(0.0001300965768 9.433553325e-06 0)
(0.0001195318319 7.696490969e-06 0)
(0.0001101238671 6.071280903e-06 0)
(0.0001018985447 4.625994308e-06 0)
(9.47950052e-05 3.392262731e-06 0)
(8.872085112e-05 2.376310053e-06 0)
(8.357748858e-05 1.565808707e-06 0)
(7.926262675e-05 9.375264439e-07 0)
(7.56721342e-05 4.639206358e-07 0)
(7.270525523e-05 1.172871887e-07 0)
(7.026891833e-05 -1.279945952e-07 0)
(6.827955058e-05 -2.943382959e-07 0)
(6.66634541e-05 -4.00561685e-07 0)
(6.535668427e-05 -4.619939242e-07 0)
(6.430463798e-05 -4.908473081e-07 0)
(6.34613618e-05 -4.966801374e-07 0)
(6.278867405e-05 -4.868661937e-07 0)
(6.225521614e-05 -4.670132208e-07 0)
(6.183547161e-05 -4.412741646e-07 0)
(6.150883714e-05 -4.12648607e-07 0)
(6.125878606e-05 -3.832375437e-07 0)
(6.107188534e-05 -3.544125711e-07 0)
(6.093746684e-05 -3.266970733e-07 0)
(6.084740351e-05 -3.001017116e-07 0)
(6.079521704e-05 -2.74743538e-07 0)
(6.077708765e-05 -2.510465445e-07 0)
(6.078702041e-05 -2.310494624e-07 0)
(6.082010765e-05 -2.137773206e-07 0)
(6.087296247e-05 -1.979343797e-07 0)
(6.094252844e-05 -1.829582659e-07 0)
(6.102569811e-05 -1.686295125e-07 0)
(6.111936624e-05 -1.547348283e-07 0)
(6.122045358e-05 -1.410241158e-07 0)
(6.132586814e-05 -1.272526204e-07 0)
(6.143246858e-05 -1.132042015e-07 0)
(6.15370516e-05 -9.869455944e-08 0)
(6.163635353e-05 -8.356857278e-08 0)
(6.172707199e-05 -6.769621702e-08 0)
(6.180578415e-05 -5.083142219e-08 0)
(6.186894137e-05 -3.291580647e-08 0)
(6.191350339e-05 -1.404139582e-08 0)
(6.193550648e-05 5.406631854e-09 0)
(6.193151886e-05 2.564339015e-08 0)
(0.0002201178143 5.640219389e-06 0)
(0.0002251687077 1.292885813e-05 0)
(0.0002303467692 1.658481912e-05 0)
(0.0002340408131 1.851412577e-05 0)
(0.0002359726411 1.962043855e-05 0)
(0.0002363684984 2.002717013e-05 0)
(0.0002354084634 1.977957213e-05 0)
(0.0002332538276 1.902055982e-05 0)
(0.0002301342379 1.790797504e-05 0)
(0.0002263118177 1.656414223e-05 0)
(0.0002220233019 1.508391983e-05 0)
(0.0002174620384 1.354722062e-05 0)
(0.0002127843602 1.201986246e-05 0)
(0.0002081160955 1.055165646e-05 0)
(0.0002035543458 9.176989977e-06 0)
(0.0001991692644 7.917170892e-06 0)
(0.000195008012 6.782950823e-06 0)
(0.0001910995495 5.776850302e-06 0)
(0.0001874588965 4.895334891e-06 0)
(0.0001840906122 4.130769815e-06 0)
(0.0001809916733 3.4730389e-06 0)
(0.0001781538316 2.910798899e-06 0)
(0.0001755654512 2.432407111e-06 0)
(0.0001732128924 2.02657966e-06 0)
(0.0001710815714 1.682814269e-06 0)
(0.0001691566395 1.391591912e-06 0)
(0.0001674234235 1.14449103e-06 0)
(0.0001658677479 9.342372708e-07 0)
(0.0001644761797 7.546724688e-07 0)
(0.0001632361727 6.007368854e-07 0)
(0.0001621358112 4.68329811e-07 0)
(0.0001611635806 3.540644965e-07 0)
(0.0001603084778 2.552435418e-07 0)
(0.0001595599075 1.692422182e-07 0)
(0.0001589101723 9.463858494e-08 0)
(0.0001583507433 3.054720479e-08 0)
(0.0001578730124 -2.381115387e-08 0)
(0.0001574689428 -6.908698278e-08 0)
(0.0001571309426 -1.05734799e-07 0)
(0.0001568516391 -1.340325106e-07 0)
(0.0001566237855 -1.54138656e-07 0)
(0.0001564402366 -1.661389281e-07 0)
(0.0001562939373 -1.700733954e-07 0)
(0.0001561779083 -1.659521665e-07 0)
(0.0001560854328 -1.537556485e-07 0)
(0.0001560095969 -1.336076048e-07 0)
(0.0001559432217 -1.055237005e-07 0)
(0.0001558794452 -6.938235533e-08 0)
(0.0001558115469 -2.536440787e-08 0)
(0.0001557332483 2.633323511e-08 0)
(0.0002187787997 1.467529686e-06 0)
(0.0002200383163 4.389786875e-06 0)
(0.0002226205787 7.017411149e-06 0)
(0.0002259619312 9.364801494e-06 0)
(0.0002295297069 1.145380272e-05 0)
(0.0002330919896 1.316869419e-05 0)
(0.0002364809496 1.441327072e-05 0)
(0.0002395044765 1.5183287e-05 0)
(0.0002420145796 1.552432043e-05 0)
(0.0002439434759 1.549416981e-05 0)
(0.0002452841027 1.515613281e-05 0)
(0.0002460649853 1.457863158e-05 0)
(0.000246337697 1.382974443e-05 0)
(0.0002461687458 1.297080236e-05 0)
(0.0002456310203 1.205292321e-05 0)
(0.0002447966676 1.111639743e-05 0)
(0.000243732815 1.019142096e-05 0)
(0.0002424995466 9.299299274e-06 0)
(0.0002411490836 8.453885788e-06 0)
(0.0002397256411 7.663114248e-06 0)
(0.0002382657794 6.930454573e-06 0)
(0.0002367990979 6.256176616e-06 0)
(0.0002353490955 5.63838638e-06 0)
(0.0002339340576 5.073846291e-06 0)
(0.0002325678632 4.55859656e-06 0)
(0.000231260744 4.088381435e-06 0)
(0.00023002002 3.65896323e-06 0)
(0.0002288506947 3.266338704e-06 0)
(0.0002277559179 2.906857669e-06 0)
(0.0002267373213 2.577208203e-06 0)
(0.0002257952703 2.274475635e-06 0)
(0.0002249291346 1.996259881e-06 0)
(0.0002241375817 1.740704496e-06 0)
(0.0002234189165 1.506853204e-06 0)
(0.0002227710817 1.293407555e-06 0)
(0.0002221912442 1.099208394e-06 0)
(0.0002216760901 9.234828357e-07 0)
(0.0002212221108 7.657383934e-07 0)
(0.0002208256052 6.256538854e-07 0)
(0.0002204826085 5.030630551e-07 0)
(0.0002201888776 3.979007311e-07 0)
(0.0002199399231 3.101512609e-07 0)
(0.000219731049 2.398125132e-07 0)
(0.0002195573997 1.86832659e-07 0)
(0.0002194138051 1.512367386e-07 0)
(0.0002192949104 1.329748764e-07 0)
(0.0002191955373 1.320664043e-07 0)
(0.0002191101584 1.486322768e-07 0)
(0.0002190329537 1.826760363e-07 0)
(0.000218958201 2.339146661e-07 0)
(0.0002187705101 1.485220232e-06 0)
(0.0002194972237 4.320738623e-06 0)
(0.0002207736156 6.720911377e-06 0)
(0.000222415677 8.57293971e-06 0)
(0.0002242645726 9.971186726e-06 0)
(0.0002262868681 1.101884964e-05 0)
(0.0002284771413 1.176348577e-05 0)
(0.000230778788 1.223752769e-05 0)
(0.0002331044393 1.247809756e-05 0)
(0.000235375414 1.252034492e-05 0)
(0.0002375312049 1.239386245e-05 0)
(0.0002395248775 1.212599207e-05 0)
(0.0002413222154 1.17439451e-05 0)
(0.0002429034144 1.127394299e-05 0)
(0.0002442625177 1.074000643e-05 0)
(0.0002454046237 1.016341464e-05 0)
(0.0002463426945 9.562515599e-06 0)
(0.0002470948361 8.952586125e-06 0)
(0.00024768208 8.345795486e-06 0)
(0.0002481265839 7.751360102e-06 0)
(0.0002484502711 7.175860947e-06 0)
(0.0002486739155 6.623644228e-06 0)
(0.0002488165988 6.097243825e-06 0)
(0.000248895439 5.597786972e-06 0)
(0.0002489255074 5.125371242e-06 0)
(0.0002489198895 4.679419216e-06 0)
(0.0002488898309 4.258946891e-06 0)
(0.0002488449052 3.862758383e-06 0)
(0.0002487931839 3.489589631e-06 0)
(0.0002487414027 3.138214425e-06 0)
(0.0002486951206 2.80755005e-06 0)
(0.0002486588771 2.496739128e-06 0)
(0.000248636335 2.205168376e-06 0)
(0.0002486304173 1.932447217e-06 0)
(0.0002486433875 1.678198882e-06 0)
(0.0002486768574 1.442188864e-06 0)
(0.0002487318409 1.224430301e-06 0)
(0.0002488088597 1.025094986e-06 0)
(0.0002489080168 8.443954086e-07 0)
(0.0002490289671 6.827098177e-07 0)
(0.0002491708745 5.40512837e-07 0)
(0.0002493324587 4.1830451e-07 0)
(0.0002495120336 3.165945993e-07 0)
(0.0002497073875 2.359313692e-07 0)
(0.0002499161894 1.767309146e-07 0)
(0.0002501361405 1.393877738e-07 0)
(0.0002503646381 1.241823583e-07 0)
(0.0002505987042 1.312288997e-07 0)
(0.0002508350382 1.606712843e-07 0)
(0.0002510701475 2.125725798e-07 0)
(0.0002187113117 1.032238172e-06 0)
(0.0002191165867 3.001563452e-06 0)
(0.0002199308011 4.75169022e-06 0)
(0.0002210719857 6.224003459e-06 0)
(0.0002224055049 7.430637349e-06 0)
(0.0002238489277 8.396070224e-06 0)
(0.0002253675769 9.127786874e-06 0)
(0.0002269333629 9.632585982e-06 0)
(0.0002285135267 9.930489666e-06 0)
(0.0002300802946 1.004981441e-05 0)
(0.0002316146199 1.001900637e-05 0)
(0.0002331021713 9.864315633e-06 0)
(0.0002345305106 9.610238909e-06 0)
(0.0002358896084 9.279345093e-06 0)
(0.0002371728731 8.891644899e-06 0)
(0.0002383771562 8.464287946e-06 0)
(0.00023950219 8.011608942e-06 0)
(0.0002405500403 7.545292184e-06 0)
(0.000241524641 7.074566154e-06 0)
(0.000242431313 6.606450543e-06 0)
(0.000243276274 6.146059351e-06 0)
(0.000244066204 5.696928052e-06 0)
(0.000244807902 5.261333061e-06 0)
(0.0002455080313 4.84058694e-06 0)
(0.0002461729408 4.435303408e-06 0)
(0.0002468085518 4.045626784e-06 0)
(0.0002474202961 3.671411463e-06 0)
(0.0002480130922 3.312359339e-06 0)
(0.0002485913449 2.968128114e-06 0)
(0.0002491589604 2.63841411e-06 0)
(0.0002497193704 2.323013331e-06 0)
(0.0002502755628 2.021859528e-06 0)
(0.0002508301216 1.735038391e-06 0)
(0.0002513852831 1.462780368e-06 0)
(0.0002519429383 1.205512186e-06 0)
(0.0002525046315 9.637369677e-07 0)
(0.0002530715354 7.38093738e-07 0)
(0.0002536445374 5.293833647e-07 0)
(0.0002542237047 3.385128966e-07 0)
(0.0002548092169 1.6632567e-07 0)
(0.0002554011659 1.366394515e-08 0)
(0.0002559993708 -1.185808065e-07 0)
(0.0002566034268 -2.294738108e-07 0)
(0.0002572128481 -3.180245112e-07 0)
(0.0002578266639 -3.833831885e-07 0)
(0.0002584433438 -4.248564243e-07 0)
(0.0002590611697 -4.41846528e-07 0)
(0.0002596781612 -4.338202046e-07 0)
(0.0002602921047 -4.002795622e-07 0)
(0.0002609005965 -3.408117208e-07 0)
(0.0002186957202 7.892366766e-07 0)
(0.0002189821381 2.335148065e-06 0)
(0.0002195755945 3.772767288e-06 0)
(0.000220436757 5.03757032e-06 0)
(0.0002214732447 6.102656196e-06 0)
(0.000222614992 6.96590222e-06 0)
(0.0002238239207 7.631125473e-06 0)
(0.0002250722088 8.105257998e-06 0)
(0.0002263314195 8.402209311e-06 0)
(0.0002275764777 8.541842936e-06 0)
(0.0002287900975 8.545941647e-06 0)
(0.0002299619116 8.435924806e-06 0)
(0.0002310858994 8.232402076e-06 0)
(0.0002321591 7.954842138e-06 0)
(0.0002331812176 7.620925979e-06 0)
(0.0002341541145 7.246051487e-06 0)
(0.0002350811177 6.843198252e-06 0)
(0.0002359664445 6.423023226e-06 0)
(0.0002368148261 5.994044703e-06 0)
(0.0002376312391 5.562870547e-06 0)
(0.0002384206823 5.13446138e-06 0)
(0.000239187998 4.712408741e-06 0)
(0.0002399377468 4.299204546e-06 0)
(0.0002406741308 3.896487424e-06 0)
(0.0002414009519 3.505260352e-06 0)
(0.0002421215962 3.126077787e-06 0)
(0.0002428390402 2.759201445e-06 0)
(0.0002435558716 2.40472592e-06 0)
(0.0002442743166 2.062678464e-06 0)
(0.000244996269 1.733094799e-06 0)
(0.0002457233151 1.416079705e-06 0)
(0.0002464567647 1.111852561e-06 0)
(0.000247197668 8.207520374e-07 0)
(0.0002479469624 5.432734404e-07 0)
(0.0002487052372 2.799745833e-07 0)
(0.0002494728207 3.160653921e-08 0)
(0.0002502500131 -2.009527803e-07 0)
(0.0002510369073 -4.167111229e-07 0)
(0.0002518339072 -6.145079492e-07 0)
(0.0002526408145 -7.932671155e-07 0)
(0.0002534570399 -9.519334152e-07 0)
(0.0002542818095 -1.089399356e-06 0)
(0.0002551141357 -1.204534207e-06 0)
(0.0002559527765 -1.296277104e-06 0)
(0.0002567962625 -1.363539653e-06 0)
(0.0002576429828 -1.405218587e-06 0)
(0.0002584911947 -1.420308425e-06 0)
(0.0002593389699 -1.407934565e-06 0)
(0.0002601841668 -1.367358661e-06 0)
(0.0002610244411 -1.298011086e-06 0)
(0.0002186871055 6.193155621e-07 0)
(0.000218901015 1.838255379e-06 0)
(0.0002193443493 2.986625009e-06 0)
(0.000219998481 4.014441291e-06 0)
(0.000220806431 4.895255797e-06 0)
(0.0002217200069 5.622821854e-06 0)
(0.000222708329 6.198674779e-06 0)
(0.0002237469282 6.626696813e-06 0)
(0.0002248112587 6.914178836e-06 0)
(0.0002258786069 7.072523192e-06 0)
(0.0002269313343 7.115723398e-06 0)
(0.0002279572833 7.058650847e-06 0)
(0.000228948513 6.916233192e-06 0)
(0.0002299003263 6.703041821e-06 0)
(0.0002308108491 6.432831488e-06 0)
(0.0002316806303 6.118112482e-06 0)
(0.0002325120699 5.769911202e-06 0)
(0.0002333088351 5.397704024e-06 0)
(0.0002340753882 5.009445036e-06 0)
(0.000234816624 4.611647959e-06 0)
(0.0002355375808 4.209513525e-06 0)
(0.0002362432132 3.807091296e-06 0)
(0.00023693823 3.407457978e-06 0)
(0.0002376269888 3.012896295e-06 0)
(0.0002383134365 2.62506482e-06 0)
(0.0002390010832 2.245153523e-06 0)
(0.0002396929992 1.874021441e-06 0)
(0.0002403918306 1.512311459e-06 0)
(0.0002410998215 1.160547067e-06 0)
(0.0002418188524 8.192079802e-07 0)
(0.0002425504528 4.887835507e-07 0)
(0.0002432959356 1.698252303e-07 0)
(0.0002440562579 -1.370066689e-07 0)
(0.0002448320155 -4.309266682e-07 0)
(0.0002456237293 -7.1110142e-07 0)
(0.0002464317495 -9.765248235e-07 0)
(0.0002472560805 -1.226087171e-06 0)
(0.0002480964753 -1.458627514e-06 0)
(0.0002489524526 -1.672963947e-06 0)
(0.0002498233358 -1.867742035e-06 0)
(0.0002507083064 -2.041513012e-06 0)
(0.0002516063612 -2.192813911e-06 0)
(0.0002525162657 -2.320200897e-06 0)
(0.0002534365487 -2.422265115e-06 0)
(0.0002543655236 -2.497623324e-06 0)
(0.000255301314 -2.544948744e-06 0)
(0.0002562418622 -2.563031155e-06 0)
(0.0002571849209 -2.550811838e-06 0)
(0.0002581280573 -2.507392539e-06 0)
(0.0002590686768 -2.432038988e-06 0)
(0.000218680737 4.897812048e-07 0)
(0.0002188443997 1.455383098e-06 0)
(0.0002191857549 2.373162363e-06 0)
(0.000219696704 3.208430777e-06 0)
(0.0002203402783 3.939098786e-06 0)
(0.0002210822927 4.555423772e-06 0)
(0.0002218981183 5.054082585e-06 0)
(0.0002227673088 5.434890457e-06 0)
(0.0002236700984 5.700887818e-06 0)
(0.0002245882452 5.858667099e-06 0)
(0.0002255068068 5.917483291e-06 0)
(0.000226414577 5.88795129e-06 0)
(0.0002273035167 5.781180431e-06 0)
(0.0002281681777 5.608311958e-06 0)
(0.0002290054098 5.380150809e-06 0)
(0.0002298141125 5.106819573e-06 0)
(0.0002305948818 4.797509083e-06 0)
(0.0002313496065 4.460352605e-06 0)
(0.0002320811041 4.102390319e-06 0)
(0.0002327928204 3.729590813e-06 0)
(0.0002334885763 3.346915476e-06 0)
(0.0002341723572 2.958416289e-06 0)
(0.0002348481447 2.56735459e-06 0)
(0.0002355197909 2.176327928e-06 0)
(0.0002361909313 1.787396558e-06 0)
(0.0002368649275 1.402200971e-06 0)
(0.0002375448314 1.022078092e-06 0)
(0.0002382333666 6.481446738e-07 0)
(0.0002389329467 2.813803119e-07 0)
(0.0002396456679 -7.729685609e-08 0)
(0.0002403732966 -4.269755093e-07 0)
(0.0002411172025 -7.667190606e-07 0)
(0.0002418785641 -1.095505224e-06 0)
(0.0002426582827 -1.412240105e-06 0)
(0.0002434570138 -1.715680567e-06 0)
(0.0002442751693 -2.004544375e-06 0)
(0.0002451128811 -2.277455316e-06 0)
(0.0002459700253 -2.532933872e-06 0)
(0.0002468462351 -2.769409522e-06 0)
(0.0002477408991 -2.985214046e-06 0)
(0.0002486531637 -3.178630988e-06 0)
(0.0002495819315 -3.347941783e-06 0)
(0.0002505258548 -3.491444912e-06 0)
(0.0002514833368 -3.607469255e-06 0)
(0.0002524525381 -3.694393266e-06 0)
(0.0002534313882 -3.750675118e-06 0)
(0.0002544175966 -3.774887513e-06 0)
(0.0002554086672 -3.765744889e-06 0)
(0.0002564019122 -3.722121855e-06 0)
(0.0002573944661 -3.64307238e-06 0)
(0.0002186764229 3.891853032e-07 0)
(0.0002188059708 1.157916399e-06 0)
(0.000219077061 1.89335059e-06 0)
(0.0002194861122 2.570099999e-06 0)
(0.0002200075208 3.169701985e-06 0)
(0.0002206167927 3.681577044e-06 0)
(0.0002212953589 4.100427208e-06 0)
(0.0002220271527 4.424329526e-06 0)
(0.0002227965375 4.654294875e-06 0)
(0.0002235889127 4.794131558e-06 0)
(0.0002243918656 4.849854125e-06 0)
(0.0002251955753 4.828848068e-06 0)
(0.0002259925985 4.739204593e-06 0)
(0.0002267775555 4.589295047e-06 0)
(0.0002275469188 4.387449515e-06 0)
(0.0002282988307 4.141671229e-06 0)
(0.0002290328649 3.859412683e-06 0)
(0.0002297497497 3.547438028e-06 0)
(0.0002304511028 3.211760083e-06 0)
(0.0002311391986 2.857628377e-06 0)
(0.0002318167673 2.489554167e-06 0)
(0.0002324868208 2.111364134e-06 0)
(0.0002331525065 1.726275503e-06 0)
(0.0002338169906 1.336976612e-06 0)
(0.0002344833678 9.457240278e-07 0)
(0.0002351546014 5.544226443e-07 0)
(0.0002358334767 1.647060458e-07 0)
(0.0002365225519 -2.219730535e-07 0)
(0.0002372241351 -6.042791418e-07 0)
(0.0002379402768 -9.809377522e-07 0)
(0.0002386728036 -1.350680469e-06 0)
(0.0002394232908 -1.712204971e-06 0)
(0.0002401930551 -2.064166415e-06 0)
(0.0002409831487 -2.405144337e-06 0)
(0.0002417943668 -2.733614939e-06 0)
(0.0002426272506 -3.047967354e-06 0)
(0.0002434820778 -3.346489289e-06 0)
(0.0002443588567 -3.627365225e-06 0)
(0.0002452573225 -3.888692364e-06 0)
(0.0002461769323 -4.128498295e-06 0)
(0.000247116863 -4.344762391e-06 0)
(0.0002480760129 -4.535441788e-06 0)
(0.0002490529985 -4.698497107e-06 0)
(0.0002500461514 -4.831919302e-06 0)
(0.0002510535211 -4.933759425e-06 0)
(0.0002520728833 -5.002160583e-06 0)
(0.000253101754 -5.03539055e-06 0)
(0.0002541374038 -5.03187414e-06 0)
(0.0002551768744 -4.990224104e-06 0)
(0.0002562169981 -4.909268538e-06 0)
(0.0002186733195 3.08921286e-07 0)
(0.0002187782434 9.197581331e-07 0)
(0.0002189981093 1.506198264e-06 0)
(0.0002193315488 2.049132333e-06 0)
(0.0002197602161 2.533753806e-06 0)
(0.0002202664815 2.950518166e-06 0)
(0.0002208366652 3.293795662e-06 0)
(0.0002214583642 3.560742195e-06 0)
(0.000222119151 3.750897435e-06 0)
(0.0002228072234 3.865997484e-06 0)
(0.0002235123035 3.90960627e-06 0)
(0.0002242259706 3.886594104e-06 0)
(0.0002249415861 3.802652683e-06 0)
(0.0002256541326 3.663927474e-06 0)
(0.000226360087 3.476732246e-06 0)
(0.0002270572945 3.24730733e-06 0)
(0.0002277448047 2.981624225e-06 0)
(0.0002284226776 2.685248789e-06 0)
(0.0002290917875 2.363261169e-06 0)
(0.0002297536427 2.020218345e-06 0)
(0.000230410225 1.660152183e-06 0)
(0.0002310638485 1.286585687e-06 0)
(0.0002317170306 9.025926322e-07 0)
(0.0002323723963 5.108310147e-07 0)
(0.0002330326016 1.136084123e-07 0)
(0.0002337002433 -2.870345334e-07 0)
(0.00023437782 -6.892729873e-07 0)
(0.0002350677119 -1.09142393e-06 0)
(0.0002357721368 -1.491892226e-06 0)
(0.0002364931274 -1.889127749e-06 0)
(0.0002372325181 -2.281583576e-06 0)
(0.0002379919312 -2.667677422e-06 0)
(0.0002387727657 -3.04576414e-06 0)
(0.0002395761863 -3.414110081e-06 0)
(0.0002404031132 -3.770876444e-06 0)
(0.0002412542129 -4.114114809e-06 0)
(0.0002421298853 -4.441767385e-06 0)
(0.0002430302487 -4.751670642e-06 0)
(0.0002439551298 -5.04156621e-06 0)
(0.0002449040535 -5.309116783e-06 0)
(0.000245876235 -5.55192653e-06 0)
(0.0002468705731 -5.767568615e-06 0)
(0.0002478856432 -5.953617271e-06 0)
(0.0002489196938 -6.107681556e-06 0)
(0.0002499706476 -6.227440215e-06 0)
(0.0002510361095 -6.310677943e-06 0)
(0.0002521133788 -6.355322885e-06 0)
(0.0002531994657 -6.359483957e-06 0)
(0.0002542911128 -6.321485595e-06 0)
(0.0002553848209 -6.239898184e-06 0)
(0.0002186709866 2.434531485e-07 0)
(0.0002187574608 7.251017277e-07 0)
(0.0002189388727 1.188337282e-06 0)
(0.0002192150585 1.618527522e-06 0)
(0.0002195724518 2.003870963e-06 0)
(0.0002199980972 2.336103864e-06 0)
(0.0002204818842 2.609716326e-06 0)
(0.0002210143027 2.82134422e-06 0)
(0.0002215855384 2.969561291e-06 0)
(0.0002221861168 3.054743116e-06 0)
(0.0002228076388 3.078804705e-06 0)
(0.0002234430399 3.044839391e-06 0)
(0.0002240865667 2.956761763e-06 0)
(0.0002247337087 2.819010743e-06 0)
(0.0002253811427 2.636309046e-06 0)
(0.0002260266596 2.413461093e-06 0)
(0.0002266690556 2.155187056e-06 0)
(0.0002273079989 1.865997519e-06 0)
(0.0002279438873 1.550113634e-06 0)
(0.000228577714 1.211406386e-06 0)
(0.0002292109352 8.534030168e-07 0)
(0.0002298453731 4.792653007e-07 0)
(0.0002304831023 9.180751235e-08 0)
(0.0002311263347 -3.064356357e-07 0)
(0.0002317773791 -7.131831657e-07 0)
(0.0002324385819 -1.126357064e-06 0)
(0.0002331122603 -1.544027865e-06 0)
(0.0002338006632 -1.964377095e-06 0)
(0.0002345059373 -2.385645859e-06 0)
(0.0002352301 -2.806087793e-06 0)
(0.0002359750176 -3.223930832e-06 0)
(0.0002367423835 -3.637343834e-06 0)
(0.0002375336976 -4.044409461e-06 0)
(0.0002383502472 -4.443103568e-06 0)
(0.0002391930867 -4.831280737e-06 0)
(0.0002400630198 -5.206666978e-06 0)
(0.000240960579 -5.566859344e-06 0)
(0.0002418860061 -5.909330311e-06 0)
(0.0002428392327 -6.231438446e-06 0)
(0.0002438198629 -6.530446064e-06 0)
(0.0002448271574 -6.803543473e-06 0)
(0.0002458600194 -7.047879519e-06 0)
(0.0002469169841 -7.260597033e-06 0)
(0.0002479962128 -7.438871543e-06 0)
(0.0002490954916 -7.579952537e-06 0)
(0.0002502122375 -7.681206838e-06 0)
(0.0002513435109 -7.740163032e-06 0)
(0.0002524860338 -7.754555077e-06 0)
(0.0002536362154 -7.722363345e-06 0)
(0.000254790183 -7.641851797e-06 0)
(0.0002186691924 1.891751297e-07 0)
(0.0002187415013 5.635033095e-07 0)
(0.000218893333 9.236057304e-07 0)
(0.0002191251674 1.258020794e-06 0)
(0.0002194266802 1.557223681e-06 0)
(0.0002197881539 1.814141227e-06 0)
(0.0002202020901 2.023656426e-06 0)
(0.0002206612554 2.18228426e-06 0)
(0.0002211579639 2.288090473e-06 0)
(0.0002216846562 2.340602924e-06 0)
(0.0002222345167 2.340616804e-06 0)
(0.0002228016886 2.289938617e-06 0)
(0.0002233812772 2.191131893e-06 0)
(0.000223969334 2.047293144e-06 0)
(0.0002245628476 1.861859917e-06 0)
(0.0002251597108 1.638445294e-06 0)
(0.0002257586528 1.38070077e-06 0)
(0.0002263591519 1.092198323e-06 0)
(0.0002269613212 7.763906233e-07 0)
(0.0002275658336 4.365002153e-07 0)
(0.0002281738181 7.551016365e-08 0)
(0.0002287867247 -3.038026915e-07 0)
(0.0002294062996 -6.988961012e-07 0)
(0.0002300345106 -1.107420524e-06 0)
(0.0002306734422 -1.527194014e-06 0)
(0.0002313252536 -1.956179237e-06 0)
(0.0002319921341 -2.392436543e-06 0)
(0.0002326762612 -2.834081884e-06 0)
(0.000233379764 -3.279245622e-06 0)
(0.0002341046897 -3.726033636e-06 0)
(0.0002348529747 -4.172493015e-06 0)
(0.0002356264165 -4.616581869e-06 0)
(0.0002364266471 -5.05614363e-06 0)
(0.0002372551057 -5.488886642e-06 0)
(0.0002381130124 -5.912369341e-06 0)
(0.0002390013406 -6.32399191e-06 0)
(0.0002399207893 -6.720994874e-06 0)
(0.0002408717546 -7.100464352e-06 0)
(0.0002418543022 -7.459344445e-06 0)
(0.0002428681405 -7.794457187e-06 0)
(0.0002439125969 -8.102529921e-06 0)
(0.0002449865966 -8.380229638e-06 0)
(0.0002460886459 -8.624203575e-06 0)
(0.0002472168214 -8.831125025e-06 0)
(0.0002483687654 -8.997743165e-06 0)
(0.0002495416901 -9.120935643e-06 0)
(0.0002507323896 -9.197762249e-06 0)
(0.0002519372614 -9.225517749e-06 0)
(0.0002531523352 -9.201781796e-06 0)
(0.0002543733108 -9.12446402e-06 0)
(0.00021866778 1.435738303e-07 0)
(0.0002187289497 4.27586834e-07 0)
(0.0002188574832 7.003657971e-07 0)
(0.0002190542014 9.527412956e-07 0)
(0.0002193110712 1.176924429e-06 0)
(0.0002196206809 1.366883543e-06 0)
(0.0002199774443 1.517993231e-06 0)
(0.0002203758749 1.626849038e-06 0)
(0.0002208099715 1.691257729e-06 0)
(0.0002212737189 1.710194731e-06 0)
(0.0002217616134 1.683670223e-06 0)
(0.0002222688478 1.6125501e-06 0)
(0.0002227913267 1.498376369e-06 0)
(0.0002233256755 1.343201641e-06 0)
(0.0002238692571 1.149439454e-06 0)
(0.0002244201675 9.197303991e-07 0)
(0.0002249771867 6.568385478e-07 0)
(0.0002255397656 3.635458069e-07 0)
(0.000226107899 4.25512564e-08 0)
(0.000226682022 -3.034964656e-07 0)
(0.0002272630526 -6.720913824e-07 0)
(0.0002278522806 -1.060857743e-06 0)
(0.0002284512552 -1.467544279e-06 0)
(0.000229061748 -1.89003852e-06 0)
(0.0002296856978 -2.326330827e-06 0)
(0.0002303251635 -2.774482565e-06 0)
(0.0002309822791 -3.232594097e-06 0)
(0.0002316592118 -3.698770851e-06 0)
(0.0002323581241 -4.171088583e-06 0)
(0.0002330811388 -4.647558863e-06 0)
(0.0002338303056 -5.12609641e-06 0)
(0.0002346075694 -5.604489397e-06 0)
(0.0002354147372 -6.080373559e-06 0)
(0.0002362534448 -6.551211023e-06 0)
(0.0002371251225 -7.014274693e-06 0)
(0.0002380309591 -7.466639052e-06 0)
(0.0002389718651 -7.905178056e-06 0)
(0.0002399484351 -8.326570625e-06 0)
(0.0002409609104 -8.727314204e-06 0)
(0.0002420091424 -9.103746929e-06 0)
(0.0002430925589 -9.452078589e-06 0)
(0.0002442101338 -9.768430245e-06 0)
(0.0002453603625 -1.004888193e-05 0)
(0.0002465412439 -1.028952742e-05 0)
(0.0002477502716 -1.04865346e-05 0)
(0.000248984435 -1.063620963e-05 0)
(0.0002502402315 -1.073506283e-05 0)
(0.0002515136898 -1.077987368e-05 0)
(0.0002528004057 -1.076775227e-05 0)
(0.0002540955867 -1.069619449e-05 0)
(0.0002186666432 1.048539471e-07 0)
(0.0002187188591 3.12075247e-07 0)
(0.000218828648 5.102462414e-07 0)
(0.0002189970012 6.918879426e-07 0)
(0.0002192175554 8.505348234e-07 0)
(0.0002194845721 9.810133438e-07 0)
(0.0002197938646 1.079172972e-06 0)
(0.0002201412719 1.141772788e-06 0)
(0.000220522117 1.166508471e-06 0)
(0.0002209316289 1.152004489e-06 0)
(0.00022136539 1.097728495e-06 0)
(0.000221819493 1.003868845e-06 0)
(0.0002222905604 8.712036179e-07 0)
(0.0002227757662 7.009791535e-07 0)
(0.0002232728651 4.947940349e-07 0)
(0.0002237802178 2.54496859e-07 0)
(0.0002242967604 -1.791739776e-08 0)
(0.0002248219173 -3.203558664e-07 0)
(0.000225355655 -6.507372202e-07 0)
(0.0002258984263 -1.006964084e-06 0)
(0.0002264510316 -1.386977847e-06 0)
(0.000227014616 -1.788808216e-06 0)
(0.0002275906188 -2.210550527e-06 0)
(0.000228180723 -2.650354952e-06 0)
(0.0002287868081 -3.106409422e-06 0)
(0.0002294109057 -3.576916875e-06 0)
(0.0002300551579 -4.060068728e-06 0)
(0.0002307217792 -4.554014482e-06 0)
(0.0002314130202 -5.056829034e-06 0)
(0.0002321311319 -5.566479385e-06 0)
(0.0002328783304 -6.080792197e-06 0)
(0.0002336567607 -6.59742346e-06 0)
(0.0002344684588 -7.113831361e-06 0)
(0.0002353153127 -7.627253409e-06 0)
(0.0002361990196 -8.134688856e-06 0)
(0.0002371210422 -8.632887514e-06 0)
(0.0002380825619 -9.118345986e-06 0)
(0.0002390844307 -9.587312381e-06 0)
(0.0002401271226 -1.00358004e-05 0)
(0.0002412106851 -1.045961364e-05 0)
(0.0002423346936 -1.085438067e-05 0)
(0.0002434982093 -1.121560092e-05 0)
(0.000244699744 -1.153870109e-05 0)
(0.0002459372331 -1.181910092e-05 0)
(0.0002472080202 -1.205228689e-05 0)
(0.0002485088537 -1.22338914e-05 0)
(0.0002498358985 -1.235977471e-05 0)
(0.0002511847628 -1.242610621e-05 0)
(0.00025255054 -1.242944135e-05 0)
(0.0002539278648 -1.23667904e-05 0)
(0.0002186657083 7.171150386e-08 0)
(0.0002187105757 2.131220119e-07 0)
(0.0002188049773 3.470973866e-07 0)
(0.0002189499713 4.674243982e-07 0)
(0.0002191404389 5.686479021e-07 0)
(0.0002193718803 6.462811451e-07 0)
(0.0002196411451 6.965913071e-07 0)
(0.0002199450786 7.165353404e-07 0)
(0.0002202800363 7.037924839e-07 0)
(0.0002206422436 6.567732049e-07 0)
(0.0002210281774 5.745640868e-07 0)
(0.0002214346947 4.568543594e-07 0)
(0.0002218590483 3.038399046e-07 0)
(0.0002222989157 1.161317109e-07 0)
(0.0002227524379 -1.053291372e-07 0)
(0.0002232182299 -3.593512479e-07 0)
(0.0002236953969 -6.44576861e-07 0)
(0.0002241835194 -9.595249996e-07 0)
(0.000224682612 -1.30261559e-06 0)
(0.0002251930969 -1.672275199e-06 0)
(0.0002257157551 -2.066921095e-06 0)
(0.0002262517019 -2.48497426e-06 0)
(0.0002268023504 -2.924863288e-06 0)
(0.0002273693684 -3.385018399e-06 0)
(0.0002279546398 -3.863858449e-06 0)
(0.0002285602282 -4.359770684e-06 0)
(0.0002291883423 -4.871084935e-06 0)
(0.0002298413016 -5.396043843e-06 0)
(0.0002305215013 -5.932770535e-06 0)
(0.0002312313777 -6.479235004e-06 0)
(0.0002319733709 -7.033220407e-06 0)
(0.0002327498861 -7.592290509e-06 0)
(0.0002335632516 -8.153759556e-06 0)
(0.0002344156735 -8.714665834e-06 0)
(0.0002353091862 -9.271750264e-06 0)
(0.0002362455995 -9.821441475e-06 0)
(0.000237226441 -1.035984886e-05 0)
(0.0002382528965 -1.088276515e-05 0)
(0.0002393257476 -1.138567992e-05 0)
(0.0002404453092 -1.186380548e-05 0)
(0.0002416113685 -1.231211593e-05 0)
(0.0002428231283 -1.272540012e-05 0)
(0.0002440791577 -1.309832832e-05 0)
(0.0002453773525 -1.342553164e-05 0)
(0.0002467149102 -1.370169258e-05 0)
(0.0002480883201 -1.392164371e-05 0)
(0.0002494933737 -1.408047079e-05 0)
(0.0002509251948 -1.417361586e-05 0)
(0.00025237829 -1.419697512e-05 0)
(0.0002538466189 -1.414698623e-05 0)
(0.0002186649193 4.318278603e-08 0)
(0.0002187036214 1.278967245e-07 0)
(0.0002187851359 2.063902268e-07 0)
(0.0002189105222 2.733986366e-07 0)
(0.0002190756028 3.242444902e-07 0)
(0.0002192768053 3.549915194e-07 0)
(0.0002195117626 3.622447884e-07 0)
(0.000219778097 3.431535529e-07 0)
(0.0002200729677 2.954229469e-07 0)
(0.0002203933822 2.173328672e-07 0)
(0.0002207365414 1.077164718e-07 0)
(0.0002210999448 -3.410978479e-08 0)
(0.0002214813875 -2.084023144e-07 0)
(0.0002218789935 -4.150544379e-07 0)
(0.0002222912625 -6.536586368e-07 0)
(0.0002227170948 -9.235706907e-07 0)
(0.0002231558032 -1.223955278e-06 0)
(0.0002236071051 -1.553853529e-06 0)
(0.0002240711028 -1.912209836e-06 0)
(0.0002245482696 -2.297911038e-06 0)
(0.0002250394276 -2.709798084e-06 0)
(0.0002255457213 -3.146675373e-06 0)
(0.0002260685907 -3.607315553e-06 0)
(0.0002266097422 -4.090453693e-06 0)
(0.0002271711195 -4.594773076e-06 0)
(0.0002277548741 -5.118884524e-06 0)
(0.0002283633369 -5.661300461e-06 0)
(0.0002289989872 -6.220404691e-06 0)
(0.0002296644216 -6.794418846e-06 0)
(0.0002303623197 -7.38136652e-06 0)
(0.0002310954075 -7.979036263e-06 0)
(0.0002318664171 -8.584944756e-06 0)
(0.0002326780409 -9.196301525e-06 0)
(0.0002335328813 -9.809976704e-06 0)
(0.0002344333937 -1.042247352e-05 0)
(0.0002353818245 -1.102990734e-05 0)
(0.0002363801418 -1.162799323e-05 0)
(0.0002374299619 -1.221204431e-05 0)
(0.0002385324709 -1.277698277e-05 0)
(0.000239688345 -1.331736589e-05 0)
(0.0002408976699 -1.382742858e-05 0)
(0.0002421598656 -1.430114367e-05 0)
(0.0002434736175 -1.473230049e-05 0)
(0.0002448368197 -1.511460087e-05 0)
(0.0002462465359 -1.544177087e-05 0)
(0.0002476989801 -1.570768472e-05 0)
(0.0002491895233 -1.590649626e-05 0)
(0.0002507127267 -1.603277149e-05 0)
(0.0002522624038 -1.608161526e-05 0)
(0.0002538317089 -1.604878427e-05 0)
(0.0002186642503 1.845499598e-08 0)
(0.000218697711 5.406940488e-08 0)
(0.0002187682401 8.444127818e-08 0)
(0.0002188768626 1.049759135e-07 0)