/*--------------------------------*- C++ -*----------------------------------*\
| =========                 |                                                 |
| \\      /  F ield         | foam-extend: Open Source CFD                    |
|  \\    /   O peration     | Version:     4.1                                |
|   \\  /    A nd           | Web:         http://www.foam-extend.org         |
|    \\/     M anipulation  |                                                 |
\*---------------------------------------------------------------------------*/
FoamFile
{
    version     2.0;
    format      ascii;
    class       volVectorField;
    location    "10000";
    object      vorticity;
}
// * * * * * * * * * * * * * * * * * * * * * * * * * * * * * * * * * * * * * //

dimensions      [0 0 -1 0 0 0 0];

internalField   nonuniform List<vector> 
15920
(
(0 -0 -0.008256819654)
(0 -0 -0.008405754154)
(0 -0 -0.00844987802)
(0 -0 -0.008325133284)
(0 -0 -0.008114849909)
(0 -0 -0.007877121277)
(0 -0 -0.007622913093)
(0 -0 -0.007353493622)
(0 -0 -0.007077378206)
(0 -0 -0.006805476112)
(0 -0 -0.006545412387)
(0 -0 -0.006301382978)
(0 -0 -0.006075765576)
(0 -0 -0.005869841271)
(0 -0 -0.005683886653)
(0 -0 -0.005517333953)
(0 -0 -0.005369063225)
(0 -0 -0.005237659993)
(0 -0 -0.005121583119)
(0 -0 -0.005019272717)
(0 -0 -0.004929224293)
(0 -0 -0.004850036547)
(0 -0 -0.004780436732)
(0 -0 -0.004719289656)
(0 -0 -0.00466559595)
(0 -0 -0.004618483107)
(0 -0 -0.004577194297)
(0 -0 -0.004541074779)
(0 -0 -0.004509547789)
(0 -0 -0.00448211502)
(0 -0 -0.004458365455)
(0 -0 -0.004437949573)
(0 -0 -0.004420618958)
(0 -0 -0.004406006828)
(0 -0 -0.004393777723)
(0 -0 -0.004383703638)
(0 -0 -0.004375578195)
(0 -0 -0.004369187232)
(0 -0 -0.004364316042)
(0 -0 -0.004360754799)
(0 -0 -0.004358297574)
(0 -0 -0.004356740151)
(0 -0 -0.004355878888)
(0 -0 -0.004355510278)
(0 -0 -0.004355431667)
(0 -0 -0.004355438111)
(0 -0 -0.00435532351)
(0 -0 -0.004354900912)
(0 -0 -0.004353948947)
(0 -0 -0.004352253399)
(0 -0 0.0003535200843)
(0 -0 -9.911604474e-06)
(0 -0 -0.0003975770571)
(0 -0 -0.0007983662158)
(0 -0 -0.001195470165)
(0 -0 -0.001572666997)
(0 -0 -0.001920838298)
(0 -0 -0.00223494792)
(0 -0 -0.002511065394)
(0 -0 -0.002746993557)
(0 -0 -0.002943134201)
(0 -0 -0.003102001037)
(0 -0 -0.003227226022)
(0 -0 -0.003322896957)
(0 -0 -0.003393230009)
(0 -0 -0.003442341647)
(0 -0 -0.00347405921)
(0 -0 -0.003491802964)
(0 -0 -0.003498542673)
(0 -0 -0.003496801139)
(0 -0 -0.003488681176)
(0 -0 -0.003475904992)
(0 -0 -0.003459860156)
(0 -0 -0.003441647493)
(0 -0 -0.003422127634)
(0 -0 -0.003401963529)
(0 -0 -0.003381657524)
(0 -0 -0.003361583637)
(0 -0 -0.00334201816)
(0 -0 -0.003323155655)
(0 -0 -0.003305124146)
(0 -0 -0.003288005508)
(0 -0 -0.003271830439)
(0 -0 -0.003256653047)
(0 -0 -0.003242486856)
(0 -0 -0.003229326878)
(0 -0 -0.003217162087)
(0 -0 -0.003205976345)
(0 -0 -0.003195748417)
(0 -0 -0.003186453195)
(0 -0 -0.003178062849)
(0 -0 -0.003170547458)
(0 -0 -0.00316387528)
(0 -0 -0.00315801298)
(0 -0 -0.003152926048)
(0 -0 -0.003148576727)
(0 -0 -0.003144926288)
(0 -0 -0.003141929118)
(0 -0 -0.003139556054)
(0 -0 -0.003137759893)
(0 -0 0.0001733789985)
(0 -0 0.000252176718)
(0 -0 0.0003158384376)
(0 -0 0.000343412511)
(0 -0 0.0003292586868)
(0 -0 0.0002756193074)
(0 -0 0.0001889912614)
(0 -0 7.727703345e-05)
(0 -0 -5.163195773e-05)
(0 -0 -0.0001904766177)
(0 -0 -0.0003330465151)
(0 -0 -0.000474416491)
(0 -0 -0.0006109528342)
(0 -0 -0.0007401669097)
(0 -0 -0.0008605235601)
(0 -0 -0.0009712447424)
(0 -0 -0.001072121104)
(0 -0 -0.001163344111)
(0 -0 -0.001245368296)
(0 -0 -0.001318805214)
(0 -0 -0.001384345395)
(0 -0 -0.001442703382)
(0 -0 -0.00149458121)
(0 -0 -0.001540645677)
(0 -0 -0.001581515343)
(0 -0 -0.001617755834)
(0 -0 -0.001649879215)
(0 -0 -0.001678345783)
(0 -0 -0.001703568346)
(0 -0 -0.001725914151)
(0 -0 -0.001745709897)
(0 -0 -0.00176325021)
(0 -0 -0.00177879231)
(0 -0 -0.001792592618)
(0 -0 -0.001804855423)
(0 -0 -0.001815770401)
(0 -0 -0.00182551332)
(0 -0 -0.001834244061)
(0 -0 -0.001842108367)
(0 -0 -0.001849240389)
(0 -0 -0.001855764575)
(0 -0 -0.001861796649)
(0 -0 -0.00186744489)
(0 -0 -0.001872803979)
(0 -0 -0.001877961576)
(0 -0 -0.00188301013)
(0 -0 -0.001888036893)
(0 -0 -0.001893119938)
(0 -0 -0.001898337767)
(0 -0 -0.001903758886)
(0 -0 0.0001464987299)
(0 -0 0.0001493268709)
(0 -0 0.0001601005791)
(0 -0 0.0001790557944)
(0 -0 0.0002036317873)
(0 -0 0.0002296687155)
(0 -0 0.0002527344066)
(0 -0 0.0002692875664)
(0 -0 0.0002770914897)
(0 -0 0.0002751577488)
(0 -0 0.0002635308361)
(0 -0 0.0002430083476)
(0 -0 0.0002148425016)
(0 -0 0.0001804842816)
(0 -0 0.0001413997342)
(0 -0 9.895295675e-05)
(0 -0 5.434178771e-05)
(0 -0 8.572123074e-06)
(0 -0 -3.754179845e-05)
(0 -0 -8.336180204e-05)
(0 -0 -0.0001284027875)
(0 -0 -0.0001723075512)
(0 -0 -0.0002148225609)
(0 -0 -0.0002557762876)
(0 -0 -0.0002950607475)
(0 -0 -0.0003326167634)
(0 -0 -0.0003684220419)
(0 -0 -0.0004024818817)
(0 -0 -0.0004348221387)
(0 -0 -0.0004654837724)
(0 -0 -0.0004945188845)
(0 -0 -0.0005219881063)
(0 -0 -0.0005479580942)
(0 -0 -0.000572501568)
(0 -0 -0.0005956935914)
(0 -0 -0.0006176119606)
(0 -0 -0.000638336254)
(0 -0 -0.0006579494055)
(0 -0 -0.0006765216189)
(0 -0 -0.0006941292318)
(0 -0 -0.0007108559006)
(0 -0 -0.0007267869106)
(0 -0 -0.0007420068836)
(0 -0 -0.0007566055588)
(0 -0 -0.0007706707648)
(0 -0 -0.0007842823822)
(0 -0 -0.0007975166193)
(0 -0 -0.0008104478317)
(0 -0 -0.0008231494281)
(0 -0 -0.0008356912582)
(0 -0 0.0001023408383)
(0 -0 0.0001032880123)
(0 -0 0.0001045214212)
(0 -0 0.0001065520768)
(0 -0 0.0001101282288)
(0 -0 0.0001158662598)
(0 -0 0.000123977307)
(0 -0 0.0001341991555)
(0 -0 0.0001458911064)
(0 -0 0.0001581916434)
(0 -0 0.0001701846788)
(0 -0 0.0001810401316)
(0 -0 0.0001901020556)
(0 -0 0.000196921439)
(0 -0 0.0002012495718)
(0 -0 0.0002030092851)
(0 -0 0.0002022566423)
(0 -0 0.0001991417612)
(0 -0 0.0001938740377)
(0 -0 0.0001866942254)
(0 -0 0.0001778537122)
(0 -0 0.0001676001922)
(0 -0 0.0001561685117)
(0 -0 0.0001437754208)
(0 -0 0.0001306171068)
(0 -0 0.0001168685687)
(0 -0 0.0001026841276)
(0 -0 8.819858744e-05)
(0 -0 7.352871468e-05)
(0 -0 5.877480502e-05)
(0 -0 4.402224571e-05)
(0 -0 2.934287461e-05)
(0 -0 1.479636045e-05)
(0 -0 4.309421133e-07)
(0 -0 -1.371308007e-05)
(0 -0 -2.760472653e-05)
(0 -0 -4.122228423e-05)
(0 -0 -5.455047412e-05)
(0 -0 -6.759425024e-05)
(0 -0 -8.03581713e-05)
(0 -0 -9.284597061e-05)
(0 -0 -0.0001050654601)
(0 -0 -0.0001170281345)
(0 -0 -0.0001287555132)
(0 -0 -0.0001402722612)
(0 -0 -0.0001515984291)
(0 -0 -0.0001627552269)
(0 -0 -0.0001737661405)
(0 -0 -0.0001846573598)
(0 -0 -0.0001954563254)
(0 -0 7.859374296e-05)
(0 -0 7.889970061e-05)
(0 -0 7.928959287e-05)
(0 -0 7.971731667e-05)
(0 -0 8.018977631e-05)
(0 -0 8.079014706e-05)
(0 -0 8.166885249e-05)
(0 -0 8.300578981e-05)
(0 -0 8.495998237e-05)
(0 -0 8.762706257e-05)
(0 -0 9.101775832e-05)
(0 -0 9.505927077e-05)
(0 -0 9.96128847e-05)
(0 -0 0.0001044987398)
(0 -0 0.000109520713)
(0 -0 0.0001144873253)
(0 -0 0.0001192266953)
(0 -0 0.0001235952662)
(0 -0 0.0001274812406)
(0 -0 0.0001308041963)
(0 -0 0.0001335123179)
(0 -0 0.0001355783946)
(0 -0 0.0001369954079)
(0 -0 0.0001377722457)
(0 -0 0.0001379298454)
(0 -0 0.0001374978995)
(0 -0 0.0001365121403)
(0 -0 0.0001350121576)
(0 -0 0.0001330396884)
(0 -0 0.0001306371919)
(0 -0 0.0001278472966)
(0 -0 0.0001247093532)
(0 -0 0.0001212627945)
(0 -0 0.0001175459151)
(0 -0 0.0001135925073)
(0 -0 0.000109434457)
(0 -0 0.0001051011563)
(0 -0 0.0001006223637)
(0 -0 9.601114146e-05)
(0 -0 9.128198415e-05)
(0 -0 8.645388471e-05)
(0 -0 8.154517192e-05)
(0 -0 7.657127867e-05)
(0 -0 7.155085078e-05)
(0 -0 6.64992687e-05)
(0 -0 6.142137685e-05)
(0 -0 5.631825066e-05)
(0 -0 5.118854998e-05)
(0 -0 4.602903492e-05)
(0 -0 4.083368558e-05)
(0 -0 6.173893711e-05)
(0 -0 6.193750398e-05)
(0 -0 6.220143904e-05)
(0 -0 6.251682988e-05)
(0 -0 6.28688418e-05)
(0 -0 6.323946056e-05)
(0 -0 6.361292118e-05)
(0 -0 6.398560055e-05)
(0 -0 6.437208098e-05)
(0 -0 6.480326362e-05)
(0 -0 6.531900565e-05)
(0 -0 6.59594351e-05)
(0 -0 6.675742933e-05)
(0 -0 6.773340256e-05)
(0 -0 6.889292364e-05)
(0 -0 7.022703269e-05)
(0 -0 7.17145057e-05)
(0 -0 7.332510659e-05)
(0 -0 7.502303799e-05)
(0 -0 7.677008694e-05)
(0 -0 7.852820421e-05)
(0 -0 8.026142656e-05)
(0 -0 8.193716751e-05)
(0 -0 8.352697047e-05)
(0 -0 8.500684229e-05)
(0 -0 8.635728827e-05)
(0 -0 8.756312375e-05)
(0 -0 8.861324071e-05)
(0 -0 8.949981158e-05)
(0 -0 9.021793327e-05)
(0 -0 9.076580099e-05)
(0 -0 9.114648897e-05)
(0 -0 9.136328123e-05)
(0 -0 9.142122487e-05)
(0 -0 9.132451395e-05)
(0 -0 9.107838425e-05)
(0 -0 9.069007127e-05)
(0 -0 9.016572053e-05)
(0 -0 8.95255794e-05)
(0 -0 8.878458186e-05)
(0 -0 8.795072646e-05)
(0 -0 8.703036351e-05)
(0 -0 8.602933651e-05)
(0 -0 8.495323326e-05)
(0 -0 8.380739705e-05)
(0 -0 8.259669643e-05)
(0 -0 8.132538581e-05)
(0 -0 7.999701944e-05)
(0 -0 7.861441381e-05)
(0 -0 7.717956946e-05)
(0 -0 4.884276059e-05)
(0 -0 4.898541211e-05)
(0 -0 4.917195734e-05)
(0 -0 4.939578764e-05)
(0 -0 4.965302847e-05)
(0 -0 4.993887866e-05)
(0 -0 5.024606754e-05)
(0 -0 5.056563955e-05)
(0 -0 5.088884082e-05)
(0 -0 5.120877054e-05)
(0 -0 5.152147785e-05)
(0 -0 5.182658774e-05)
(0 -0 5.212730669e-05)
(0 -0 5.242967623e-05)
(0 -0 5.2741297e-05)
(0 -0 5.306994806e-05)
(0 -0 5.342242605e-05)
(0 -0 5.380373801e-05)
(0 -0 5.421666256e-05)
(0 -0 5.466163844e-05)
(0 -0 5.513690764e-05)
(0 -0 5.563882649e-05)
(0 -0 5.616226165e-05)
(0 -0 5.670101261e-05)
(0 -0 5.724820021e-05)
(0 -0 5.779667301e-05)
(0 -0 5.833904312e-05)
(0 -0 5.88681308e-05)
(0 -0 5.937769069e-05)
(0 -0 5.986261552e-05)
(0 -0 6.031742806e-05)
(0 -0 6.073965241e-05)
(0 -0 6.112603013e-05)
(0 -0 6.147295204e-05)
(0 -0 6.17796429e-05)
(0 -0 6.204560889e-05)
(0 -0 6.227031785e-05)
(0 -0 6.245351789e-05)
(0 -0 6.259559736e-05)
(0 -0 6.269753456e-05)
(0 -0 6.276067485e-05)
(0 -0 6.278661748e-05)
(0 -0 6.277715755e-05)
(0 -0 6.273423786e-05)
(0 -0 6.265990369e-05)
(0 -0 6.255625765e-05)
(0 -0 6.242541941e-05)
(0 -0 6.226948285e-05)
(0 -0 6.209047077e-05)
(0 -0 6.189028735e-05)
(0 -0 3.882589267e-05)
(0 -0 3.892725825e-05)
(0 -0 3.905750345e-05)
(0 -0 3.921188877e-05)
(0 -0 3.938816941e-05)
(0 -0 3.958435528e-05)
(0 -0 3.97978755e-05)
(0 -0 4.002558314e-05)
(0 -0 4.0263999e-05)
(0 -0 4.050941737e-05)
(0 -0 4.075797763e-05)
(0 -0 4.100588999e-05)
(0 -0 4.124978576e-05)
(0 -0 4.148702596e-05)
(0 -0 4.171586082e-05)
(0 -0 4.193543975e-05)
(0 -0 4.214571335e-05)
(0 -0 4.234726339e-05)
(0 -0 4.254109208e-05)
(0 -0 4.272840543e-05)
(0 -0 4.291041938e-05)
(0 -0 4.308820935e-05)
(0 -0 4.326259268e-05)
(0 -0 4.343410473e-05)
(0 -0 4.360274461e-05)
(0 -0 4.376823551e-05)
(0 -0 4.393033575e-05)
(0 -0 4.408846414e-05)
(0 -0 4.424207994e-05)
(0 -0 4.439077743e-05)
(0 -0 4.45338893e-05)
(0 -0 4.466827622e-05)
(0 -0 4.479248223e-05)
(0 -0 4.490571562e-05)
(0 -0 4.500743802e-05)
(0 -0 4.509726828e-05)
(0 -0 4.517497119e-05)
(0 -0 4.52404551e-05)
(0 -0 4.529377852e-05)
(0 -0 4.533516119e-05)
(0 -0 4.536498754e-05)
(0 -0 4.538380106e-05)
(0 -0 4.539229505e-05)
(0 -0 4.539130142e-05)
(0 -0 4.538177793e-05)
(0 -0 4.536479428e-05)
(0 -0 4.534151724e-05)
(0 -0 4.531319274e-05)
(0 -0 4.528112752e-05)
(0 -0 4.524667151e-05)
(0 -0 3.082571077e-05)
(0 -0 3.09021255e-05)
(0 -0 3.099812028e-05)
(0 -0 3.110996192e-05)
(0 -0 3.123602692e-05)
(0 -0 3.137495585e-05)
(0 -0 3.152509462e-05)
(0 -0 3.168454472e-05)
(0 -0 3.185136453e-05)
(0 -0 3.202363967e-05)
(0 -0 3.219945273e-05)
(0 -0 3.237686878e-05)
(0 -0 3.255397185e-05)
(0 -0 3.272892371e-05)
(0 -0 3.29000176e-05)
(0 -0 3.306572277e-05)
(0 -0 3.322472204e-05)
(0 -0 3.337593899e-05)
(0 -0 3.351854768e-05)
(0 -0 3.365196633e-05)
(0 -0 3.377582506e-05)
(0 -0 3.388996476e-05)
(0 -0 3.399421626e-05)
(0 -0 3.408851229e-05)
(0 -0 3.417313618e-05)
(0 -0 3.424835476e-05)
(0 -0 3.431459375e-05)
(0 -0 3.437229207e-05)
(0 -0 3.442136024e-05)
(0 -0 3.44612524e-05)
(0 -0 3.449197813e-05)
(0 -0 3.451363282e-05)
(0 -0 3.452633336e-05)
(0 -0 3.453022348e-05)
(0 -0 3.452548414e-05)
(0 -0 3.451234224e-05)
(0 -0 3.449107945e-05)
(0 -0 3.446204138e-05)
(0 -0 3.442564405e-05)
(0 -0 3.438237889e-05)
(0 -0 3.433281561e-05)
(0 -0 3.427760211e-05)
(0 -0 3.421746306e-05)
(0 -0 3.415319814e-05)
(0 -0 3.408567965e-05)
(0 -0 3.401584915e-05)
(0 -0 3.394471245e-05)
(0 -0 3.387333276e-05)
(0 -0 3.380282309e-05)
(0 -0 3.373433889e-05)
(0 -0 2.429641412e-05)
(0 -0 2.435694523e-05)
(0 -0 2.443117009e-05)
(0 -0 2.451597062e-05)
(0 -0 2.461012735e-05)
(0 -0 2.471268585e-05)
(0 -0 2.482251045e-05)
(0 -0 2.493829956e-05)
(0 -0 2.505871362e-05)
(0 -0 2.518243003e-05)
(0 -0 2.530814245e-05)
(0 -0 2.543456633e-05)
(0 -0 2.556046152e-05)
(0 -0 2.568465401e-05)
(0 -0 2.580604671e-05)
(0 -0 2.592362295e-05)
(0 -0 2.603644843e-05)
(0 -0 2.614367686e-05)
(0 -0 2.624454728e-05)
(0 -0 2.633841645e-05)
(0 -0 2.64246115e-05)
(0 -0 2.650258762e-05)
(0 -0 2.657209701e-05)
(0 -0 2.663294739e-05)
(0 -0 2.668515252e-05)
(0 -0 2.672867558e-05)
(0 -0 2.676321787e-05)
(0 -0 2.678856422e-05)
(0 -0 2.68046889e-05)
(0 -0 2.6811629e-05)
(0 -0 2.680946709e-05)
(0 -0 2.679832848e-05)
(0 -0 2.677837987e-05)
(0 -0 2.674982948e-05)
(0 -0 2.671292963e-05)
(0 -0 2.666798059e-05)
(0 -0 2.661533525e-05)
(0 -0 2.655540417e-05)
(0 -0 2.648865898e-05)
(0 -0 2.641563382e-05)
(0 -0 2.633692517e-05)
(0 -0 2.625319026e-05)
(0 -0 2.616514485e-05)
(0 -0 2.607356071e-05)
(0 -0 2.597926294e-05)
(0 -0 2.588312722e-05)
(0 -0 2.578607675e-05)
(0 -0 2.568907794e-05)
(0 -0 2.559313399e-05)
(0 -0 2.549927822e-05)
(0 -0 1.888109325e-05)
(0 -0 1.893098625e-05)
(0 -0 1.899072703e-05)
(0 -0 1.905759012e-05)
(0 -0 1.913062181e-05)
(0 -0 1.920914497e-05)
(0 -0 1.929237488e-05)
(0 -0 1.937940815e-05)
(0 -0 1.946930312e-05)
(0 -0 1.956111546e-05)
(0 -0 1.965389984e-05)
(0 -0 1.974671864e-05)
(0 -0 1.983866183e-05)
(0 -0 1.992886457e-05)
(0 -0 2.0016516e-05)
(0 -0 2.010086289e-05)
(0 -0 2.018120376e-05)
(0 -0 2.025691345e-05)
(0 -0 2.032731448e-05)
(0 -0 2.039182859e-05)
(0 -0 2.045007846e-05)
(0 -0 2.050169413e-05)
(0 -0 2.05464953e-05)
(0 -0 2.058428665e-05)
(0 -0 2.061465711e-05)
(0 -0 2.063730512e-05)
(0 -0 2.065205798e-05)
(0 -0 2.065880185e-05)
(0 -0 2.065746993e-05)
(0 -0 2.06480402e-05)
(0 -0 2.063053404e-05)
(0 -0 2.060501517e-05)
(0 -0 2.057158917e-05)
(0 -0 2.053040394e-05)
(0 -0 2.048165213e-05)
(0 -0 2.042557494e-05)
(0 -0 2.036246673e-05)
(0 -0 2.029267924e-05)
(0 -0 2.021662423e-05)
(0 -0 2.013477399e-05)
(0 -0 2.004765996e-05)
(0 -0 1.995587055e-05)
(0 -0 1.986004859e-05)
(0 -0 1.976088869e-05)
(0 -0 1.965913406e-05)
(0 -0 1.955557302e-05)
(0 -0 1.94510356e-05)
(0 -0 1.934638999e-05)
(0 -0 1.92425373e-05)
(0 -0 1.914040497e-05)
(0 -0 1.433000068e-05)
(0 -0 1.437264337e-05)
(0 -0 1.442256244e-05)
(0 -0 1.447729031e-05)
(0 -0 1.453605139e-05)
(0 -0 1.459835551e-05)
(0 -0 1.466364791e-05)
(0 -0 1.473128324e-05)
(0 -0 1.480058219e-05)
(0 -0 1.487085812e-05)
(0 -0 1.494141786e-05)
(0 -0 1.501156705e-05)
(0 -0 1.508062415e-05)
(0 -0 1.514793266e-05)
(0 -0 1.521286749e-05)
(0 -0 1.527483835e-05)
(0 -0 1.533323267e-05)
(0 -0 1.538750961e-05)
(0 -0 1.543726695e-05)
(0 -0 1.548208063e-05)
(0 -0 1.55216987e-05)
(0 -0 1.555585102e-05)
(0 -0 1.558409649e-05)
(0 -0 1.560608808e-05)
(0 -0 1.562158049e-05)
(0 -0 1.563037658e-05)
(0 -0 1.563231699e-05)
(0 -0 1.562727876e-05)
(0 -0 1.561517595e-05)
(0 -0 1.559596049e-05)
(0 -0 1.556962225e-05)
(0 -0 1.553618858e-05)
(0 -0 1.549572408e-05)
(0 -0 1.544833164e-05)
(0 -0 1.539415524e-05)
(0 -0 1.53333844e-05)
(0 -0 1.526625921e-05)
(0 -0 1.519307476e-05)
(0 -0 1.511418383e-05)
(0 -0 1.50299973e-05)
(0 -0 1.49409828e-05)
(0 -0 1.484766231e-05)
(0 -0 1.475060966e-05)
(0 -0 1.465044811e-05)
(0 -0 1.454784752e-05)
(0 -0 1.444352088e-05)
(0 -0 1.43382206e-05)
(0 -0 1.423273482e-05)
(0 -0 1.412788285e-05)
(0 -0 1.40245089e-05)
(0 -0 1.046466438e-05)
(0 -0 1.050228628e-05)
(0 -0 1.054543529e-05)
(0 -0 1.059181789e-05)
(0 -0 1.064078198e-05)
(0 -0 1.069196645e-05)
(0 -0 1.07449692e-05)
(0 -0 1.0799314e-05)
(0 -0 1.08544965e-05)
(0 -0 1.091000704e-05)
(0 -0 1.096532925e-05)
(0 -0 1.101994039e-05)
(0 -0 1.107332612e-05)
(0 -0 1.11249574e-05)
(0 -0 1.117432646e-05)
(0 -0 1.122096672e-05)
(0 -0 1.126447773e-05)
(0 -0 1.130442749e-05)
(0 -0 1.134053421e-05)
(0 -0 1.13724866e-05)
(0 -0 1.139984728e-05)
(0 -0 1.142225595e-05)
(0 -0 1.143942814e-05)
(0 -0 1.145111824e-05)
(0 -0 1.145711194e-05)
(0 -0 1.145722333e-05)
(0 -0 1.145129444e-05)
(0 -0 1.143919688e-05)
(0 -0 1.142083405e-05)
(0 -0 1.139614265e-05)
(0 -0 1.136509294e-05)
(0 -0 1.132768805e-05)
(0 -0 1.128396376e-05)
(0 -0 1.123398988e-05)
(0 -0 1.117787366e-05)
(0 -0 1.11157649e-05)
(0 -0 1.104786123e-05)
(0 -0 1.097441259e-05)
(0 -0 1.089572394e-05)
(0 -0 1.081215614e-05)
(0 -0 1.072412495e-05)
(0 -0 1.063209875e-05)
(0 -0 1.053659579e-05)
(0 -0 1.043818164e-05)
(0 -0 1.033746688e-05)
(0 -0 1.023510418e-05)
(0 -0 1.013178468e-05)
(0 -0 1.002823431e-05)
(0 -0 9.925209776e-06)
(0 -0 9.823492435e-06)
(0 -0 7.155315973e-06)
(0 -0 7.189402168e-06)
(0 -0 7.227800217e-06)
(0 -0 7.268342529e-06)
(0 -0 7.310471478e-06)
(0 -0 7.353921555e-06)
(0 -0 7.398394957e-06)
(0 -0 7.443527594e-06)
(0 -0 7.488932528e-06)
(0 -0 7.534224265e-06)
(0 -0 7.579002679e-06)
(0 -0 7.622859807e-06)
(0 -0 7.665392803e-06)
(0 -0 7.706227699e-06)
(0 -0 7.744978452e-06)
(0 -0 7.781266826e-06)
(0 -0 7.814799936e-06)
(0 -0 7.845276951e-06)
(0 -0 7.87228946e-06)
(0 -0 7.895495485e-06)
(0 -0 7.914601815e-06)
(0 -0 7.929339279e-06)
(0 -0 7.939459776e-06)
(0 -0 7.944736819e-06)
(0 -0 7.944966642e-06)
(0 -0 7.939969376e-06)
(0 -0 7.92958978e-06)
(0 -0 7.913698282e-06)
(0 -0 7.892192457e-06)
(0 -0 7.86499826e-06)
(0 -0 7.832070382e-06)
(0 -0 7.793391968e-06)
(0 -0 7.748974793e-06)
(0 -0 7.698861067e-06)
(0 -0 7.643127311e-06)
(0 -0 7.581889771e-06)
(0 -0 7.515310127e-06)
(0 -0 7.443600202e-06)
(0 -0 7.367024938e-06)
(0 -0 7.285903482e-06)
(0 -0 7.200608516e-06)
(0 -0 7.111564072e-06)
(0 -0 7.019242575e-06)
(0 -0 6.924162264e-06)
(0 -0 6.826885556e-06)
(0 -0 6.728017212e-06)
(0 -0 6.628200833e-06)
(0 -0 6.52811449e-06)
(0 -0 6.428466841e-06)
(0 -0 6.329992278e-06)
(0 -0 4.306147685e-06)
(0 -0 4.337481885e-06)
(0 -0 4.372292003e-06)
(0 -0 4.408529013e-06)
(0 -0 4.445713567e-06)
(0 -0 4.483645931e-06)
(0 -0 4.522089435e-06)
(0 -0 4.560746303e-06)
(0 -0 4.599303118e-06)
(0 -0 4.637458342e-06)
(0 -0 4.674919174e-06)
(0 -0 4.711375431e-06)
(0 -0 4.746496809e-06)
(0 -0 4.77999085e-06)
(0 -0 4.811582874e-06)
(0 -0 4.840986061e-06)
(0 -0 4.867856502e-06)
(0 -0 4.891893677e-06)
(0 -0 4.912816403e-06)
(0 -0 4.930354221e-06)
(0 -0 4.944250121e-06)
(0 -0 4.954261976e-06)
(0 -0 4.960164433e-06)
(0 -0 4.961750467e-06)
(0 -0 4.958831279e-06)
(0 -0 4.951236031e-06)
(0 -0 4.938812787e-06)
(0 -0 4.921430627e-06)
(0 -0 4.898981873e-06)
(0 -0 4.871383427e-06)
(0 -0 4.838577054e-06)
(0 -0 4.800529215e-06)
(0 -0 4.75723157e-06)
(0 -0 4.70870308e-06)
(0 -0 4.654994078e-06)
(0 -0 4.59619194e-06)
(0 -0 4.532427338e-06)
(0 -0 4.463879575e-06)
(0 -0 4.390779827e-06)
(0 -0 4.313412056e-06)
(0 -0 4.232112222e-06)
(0 -0 4.147266391e-06)
(0 -0 4.059308211e-06)
(0 -0 3.968716532e-06)
(0 -0 3.876014046e-06)
(0 -0 3.781766521e-06)
(0 -0 3.686580426e-06)
(0 -0 3.591098005e-06)
(0 -0 3.495991693e-06)
(0 -0 3.401958738e-06)
(0 -0 1.837307792e-06)
(0 -0 1.867289038e-06)
(0 -0 1.900198327e-06)
(0 -0 1.933992771e-06)
(0 -0 1.968243749e-06)
(0 -0 2.002800359e-06)
(0 -0 2.037474476e-06)
(0 -0 2.072019896e-06)
(0 -0 2.106187869e-06)
(0 -0 2.139737225e-06)
(0 -0 2.17244265e-06)
(0 -0 2.20408131e-06)
(0 -0 2.234422549e-06)
(0 -0 2.263202042e-06)
(0 -0 2.290158494e-06)
(0 -0 2.315043031e-06)
(0 -0 2.337610659e-06)
(0 -0 2.357618851e-06)
(0 -0 2.374829433e-06)
(0 -0 2.389009816e-06)
(0 -0 2.399934908e-06)
(0 -0 2.407389678e-06)
(0 -0 2.411170848e-06)
(0 -0 2.411087911e-06)
(0 -0 2.406963823e-06)
(0 -0 2.398635803e-06)
(0 -0 2.385956704e-06)
(0 -0 2.368796998e-06)
(0 -0 2.347046768e-06)
(0 -0 2.320616944e-06)
(0 -0 2.28943961e-06)
(0 -0 2.253468e-06)
(0 -0 2.212677204e-06)
(0 -0 2.167066529e-06)
(0 -0 2.116663902e-06)
(0 -0 2.061531973e-06)
(0 -0 2.001774881e-06)
(0 -0 1.937544073e-06)
(0 -0 1.869041725e-06)
(0 -0 1.796521376e-06)
(0 -0 1.720286814e-06)
(0 -0 1.640690664e-06)
(0 -0 1.558133136e-06)
(0 -0 1.473060402e-06)
(0 -0 1.385962689e-06)
(0 -0 1.297373067e-06)
(0 -0 1.207866062e-06)
(0 -0 1.118053596e-06)
(0 -0 1.028578224e-06)
(0 -0 9.401054558e-07)
(0 -0 -2.928988116e-07)
(0 -0 -2.642657631e-07)
(0 -0 -2.330802481e-07)
(0 -0 -2.013387467e-07)
(0 -0 -1.694402321e-07)
(0 -0 -1.37507075e-07)
(0 -0 -1.056934527e-07)
(0 -0 -7.419863496e-08)
(0 -0 -4.322385491e-08)
(0 -0 -1.294946987e-08)
(0 -0 1.643856496e-08)
(0 -0 4.474917777e-08)
(0 -0 7.178559425e-08)
(0 -0 9.734645895e-08)
(0 -0 1.212280324e-07)
(0 -0 1.432256246e-07)
(0 -0 1.631341142e-07)
(0 -0 1.807482377e-07)
(0 -0 1.958632414e-07)
(0 -0 2.082762535e-07)
(0 -0 2.177881895e-07)
(0 -0 2.24206174e-07)
(0 -0 2.273456667e-07)
(0 -0 2.270317612e-07)
(0 -0 2.230998118e-07)
(0 -0 2.153960563e-07)
(0 -0 2.037788791e-07)
(0 -0 1.881207825e-07)
(0 -0 1.683104655e-07)
(0 -0 1.442542153e-07)
(0 -0 1.158763153e-07)
(0 -0 8.311899489e-08)
(0 -0 4.594311401e-08)
(0 -0 4.330755698e-09)
(0 -0 -4.170979963e-08)
(0 -0 -9.213737488e-08)
(0 -0 -1.46870871e-07)
(0 -0 -2.0578339e-07)
(0 -0 -2.686986438e-07)
(0 -0 -3.353901008e-07)
(0 -0 -4.055821254e-07)
(0 -0 -4.789513134e-07)
(0 -0 -5.551269359e-07)
(0 -0 -6.336914768e-07)
(0 -0 -7.141824716e-07)
(0 -0 -7.960947654e-07)
(0 -0 -8.788825736e-07)
(0 -0 -9.619634775e-07)
(0 -0 -1.044725592e-06)
(0 -0 -1.126536225e-06)
(0 -0 -2.122250775e-06)
(0 -0 -2.09518523e-06)
(0 -0 -2.065853169e-06)
(0 -0 -2.03613911e-06)
(0 -0 -2.006425556e-06)
(0 -0 -1.976815481e-06)
(0 -0 -1.947429279e-06)
(0 -0 -1.918426378e-06)
(0 -0 -1.88997217e-06)
(0 -0 -1.862220463e-06)
(0 -0 -1.835322187e-06)
(0 -0 -1.809433718e-06)
(0 -0 -1.784717131e-06)
(0 -0 -1.761337899e-06)
(0 -0 -1.739464031e-06)
(0 -0 -1.719266388e-06)
(0 -0 -1.700918817e-06)
(0 -0 -1.684598002e-06)
(0 -0 -1.670482697e-06)
(0 -0 -1.658751972e-06)
(0 -0 -1.649582819e-06)
(0 -0 -1.643147798e-06)
(0 -0 -1.639613457e-06)
(0 -0 -1.639139724e-06)
(0 -0 -1.641879684e-06)
(0 -0 -1.647978859e-06)
(0 -0 -1.657573638e-06)
(0 -0 -1.670789067e-06)
(0 -0 -1.687736669e-06)
(0 -0 -1.708513082e-06)
(0 -0 -1.733199762e-06)
(0 -0 -1.761863221e-06)
(0 -0 -1.794554389e-06)
(0 -0 -1.831305736e-06)
(0 -0 -1.872125716e-06)
(0 -0 -1.916991559e-06)
(0 -0 -1.965842158e-06)
(0 -0 -2.018572372e-06)
(0 -0 -2.07502929e-06)
(0 -0 -2.13501067e-06)
(0 -0 -2.198265475e-06)
(0 -0 -2.264495393e-06)
(0 -0 -2.333355714e-06)
(0 -0 -2.404455346e-06)
(0 -0 -2.477357565e-06)
(0 -0 -2.551582328e-06)
(0 -0 -2.626609412e-06)
(0 -0 -2.701883224e-06)
(0 -0 -2.776820988e-06)
(0 -0 -2.850822762e-06)
(0 -0 -3.697375912e-06)
(0 -0 -3.670916791e-06)
(0 -0 -3.642358074e-06)
(0 -0 -3.613565733e-06)
(0 -0 -3.584921266e-06)
(0 -0 -3.556517759e-06)
(0 -0 -3.528442558e-06)
(0 -0 -3.500815688e-06)
(0 -0 -3.47376592e-06)
(0 -0 -3.447417125e-06)
(0 -0 -3.42189149e-06)
(0 -0 -3.397314263e-06)
(0 -0 -3.373814414e-06)
(0 -0 -3.351524288e-06)
(0 -0 -3.330579626e-06)
(0 -0 -3.311120473e-06)
(0 -0 -3.293291956e-06)
(0 -0 -3.277244355e-06)
(0 -0 -3.263132057e-06)
(0 -0 -3.25111138e-06)
(0 -0 -3.24133788e-06)
(0 -0 -3.233964059e-06)
(0 -0 -3.229138192e-06)
(0 -0 -3.227004198e-06)
(0 -0 -3.227701805e-06)
(0 -0 -3.231366011e-06)
(0 -0 -3.238125378e-06)
(0 -0 -3.248099574e-06)
(0 -0 -3.2613971e-06)
(0 -0 -3.278114094e-06)
(0 -0 -3.298334364e-06)
(0 -0 -3.322129736e-06)
(0 -0 -3.349559259e-06)
(0 -0 -3.380666011e-06)
(0 -0 -3.415471245e-06)
(0 -0 -3.453966899e-06)
(0 -0 -3.496108278e-06)
(0 -0 -3.541808358e-06)
(0 -0 -3.590934098e-06)
(0 -0 -3.643304497e-06)
(0 -0 -3.698690269e-06)
(0 -0 -3.7568151e-06)
(0 -0 -3.817357081e-06)
(0 -0 -3.879948601e-06)
(0 -0 -3.94417585e-06)
(0 -0 -4.009580714e-06)
(0 -0 -4.075664991e-06)
(0 -0 -4.141895987e-06)
(0 -0 -4.207715316e-06)
(0 -0 -4.272550948e-06)
(0 -0 -5.038189296e-06)
(0 -0 -5.012379674e-06)
(0 -0 -4.984541304e-06)
(0 -0 -4.956512152e-06)
(0 -0 -4.928672193e-06)
(0 -0 -4.9011127e-06)
(0 -0 -4.873904726e-06)
(0 -0 -4.847143096e-06)
(0 -0 -4.820931202e-06)
(0 -0 -4.795369834e-06)
(0 -0 -4.770558582e-06)
(0 -0 -4.746599067e-06)
(0 -0 -4.723595555e-06)
(0 -0 -4.701654722e-06)
(0 -0 -4.680886374e-06)
(0 -0 -4.661404944e-06)
(0 -0 -4.643331071e-06)
(0 -0 -4.626792119e-06)
(0 -0 -4.611921012e-06)
(0 -0 -4.598853683e-06)
(0 -0 -4.587726051e-06)
(0 -0 -4.578671688e-06)
(0 -0 -4.571820954e-06)
(0 -0 -4.567301395e-06)
(0 -0 -4.565238366e-06)
(0 -0 -4.565754736e-06)
(0 -0 -4.568969122e-06)
(0 -0 -4.574993216e-06)
(0 -0 -4.583929506e-06)
(0 -0 -4.595870315e-06)
(0 -0 -4.610898112e-06)
(0 -0 -4.629085942e-06)
(0 -0 -4.650496525e-06)
(0 -0 -4.675179003e-06)
(0 -0 -4.703163076e-06)
(0 -0 -4.734451299e-06)
(0 -0 -4.76901124e-06)
(0 -0 -4.80676946e-06)
(0 -0 -4.847608149e-06)
(0 -0 -4.891363602e-06)
(0 -0 -4.937825465e-06)
(0 -0 -4.986736934e-06)
(0 -0 -5.037795801e-06)
(0 -0 -5.090654535e-06)
(0 -0 -5.144919267e-06)
(0 -0 -5.200150823e-06)
(0 -0 -5.255869108e-06)
(0 -0 -5.311559562e-06)
(0 -0 -5.366683021e-06)
(0 -0 -5.420689926e-06)
(0 -0 -6.161460818e-06)
(0 -0 -6.136297521e-06)
(0 -0 -6.109146146e-06)
(0 -0 -6.081804405e-06)
(0 -0 -6.054643303e-06)
(0 -0 -6.027749353e-06)
(0 -0 -6.001180799e-06)
(0 -0 -5.975013264e-06)
(0 -0 -5.949330239e-06)
(0 -0 -5.924213732e-06)
(0 -0 -5.899744505e-06)
(0 -0 -5.876004182e-06)
(0 -0 -5.853075934e-06)
(0 -0 -5.831044476e-06)
(0 -0 -5.809997205e-06)
(0 -0 -5.790026107e-06)
(0 -0 -5.771229815e-06)
(0 -0 -5.753714615e-06)
(0 -0 -5.737593406e-06)
(0 -0 -5.722982811e-06)
(0 -0 -5.709999798e-06)
(0 -0 -5.698759316e-06)
(0 -0 -5.689373744e-06)
(0 -0 -5.681953726e-06)
(0 -0 -5.676609082e-06)
(0 -0 -5.673448569e-06)
(0 -0 -5.672578121e-06)
(0 -0 -5.674098297e-06)
(0 -0 -5.678102158e-06)
(0 -0 -5.684674529e-06)
(0 -0 -5.693892462e-06)
(0 -0 -5.705825753e-06)
(0 -0 -5.720536079e-06)
(0 -0 -5.738073748e-06)
(0 -0 -5.758471872e-06)
(0 -0 -5.781738562e-06)
(0 -0 -5.807848663e-06)
(0 -0 -5.836737205e-06)
(0 -0 -5.868296154e-06)
(0 -0 -5.902373778e-06)
(0 -0 -5.938774333e-06)
(0 -0 -5.977257135e-06)
(0 -0 -6.017536194e-06)
(0 -0 -6.059280463e-06)
(0 -0 -6.10211347e-06)
(0 -0 -6.145613249e-06)
(0 -0 -6.189315584e-06)
(0 -0 -6.23272099e-06)
(0 -0 -6.275305024e-06)
(0 -0 -6.316533806e-06)
(0 -0 -7.082238377e-06)
(0 -0 -7.057694258e-06)
(0 -0 -7.031176366e-06)
(0 -0 -7.004438462e-06)
(0 -0 -6.977840156e-06)
(0 -0 -6.951461665e-06)
(0 -0 -6.925350434e-06)
(0 -0 -6.899567266e-06)
(0 -0 -6.874179865e-06)
(0 -0 -6.849254336e-06)
(0 -0 -6.824854704e-06)
(0 -0 -6.801044827e-06)
(0 -0 -6.777889197e-06)
(0 -0 -6.755453229e-06)
(0 -0 -6.733804259e-06)
(0 -0 -6.713013765e-06)
(0 -0 -6.693159894e-06)
(0 -0 -6.674328795e-06)
(0 -0 -6.656613711e-06)
(0 -0 -6.640111924e-06)
(0 -0 -6.624921076e-06)
(0 -0 -6.611136766e-06)
(0 -0 -6.598852273e-06)
(0 -0 -6.588159746e-06)
(0 -0 -6.579151357e-06)
(0 -0 -6.571919121e-06)
(0 -0 -6.566553166e-06)
(0 -0 -6.563139305e-06)
(0 -0 -6.561757113e-06)
(0 -0 -6.562479353e-06)
(0 -0 -6.565372701e-06)
(0 -0 -6.570498578e-06)
(0 -0 -6.577912342e-06)
(0 -0 -6.587659713e-06)
(0 -0 -6.599770604e-06)
(0 -0 -6.614251449e-06)
(0 -0 -6.631077334e-06)
(0 -0 -6.650185396e-06)
(0 -0 -6.671471052e-06)
(0 -0 -6.694787496e-06)
(0 -0 -6.719946476e-06)
(0 -0 -6.746717844e-06)
(0 -0 -6.7748282e-06)
(0 -0 -6.803960493e-06)
(0 -0 -6.833753344e-06)
(0 -0 -6.863798908e-06)
(0 -0 -6.893645181e-06)
(0 -0 -6.922800302e-06)
(0 -0 -6.95074139e-06)
(0 -0 -6.976952991e-06)
(0 -0 -7.812485826e-06)
(0 -0 -7.788571149e-06)
(0 -0 -7.76267987e-06)
(0 -0 -7.736515698e-06)
(0 -0 -7.7104255e-06)
(0 -0 -7.684482624e-06)
(0 -0 -7.658725138e-06)
(0 -0 -7.63320183e-06)
(0 -0 -7.6079673e-06)
(0 -0 -7.583073869e-06)
(0 -0 -7.558570793e-06)
(0 -0 -7.534506256e-06)
(0 -0 -7.510928192e-06)
(0 -0 -7.487884659e-06)
(0 -0 -7.465424756e-06)
(0 -0 -7.443601e-06)
(0 -0 -7.422472231e-06)
(0 -0 -7.402105176e-06)
(0 -0 -7.382573496e-06)
(0 -0 -7.363954645e-06)
(0 -0 -7.346326123e-06)
(0 -0 -7.329763138e-06)
(0 -0 -7.314338488e-06)
(0 -0 -7.30012396e-06)
(0 -0 -7.287191619e-06)
(0 -0 -7.275613752e-06)
(0 -0 -7.265461268e-06)
(0 -0 -7.256801338e-06)
(0 -0 -7.249695548e-06)
(0 -0 -7.24419945e-06)
(0 -0 -7.240363584e-06)
(0 -0 -7.238234769e-06)
(0 -0 -7.237855522e-06)
(0 -0 -7.239260077e-06)
(0 -0 -7.242467448e-06)
(0 -0 -7.24747359e-06)
(0 -0 -7.254244461e-06)
(0 -0 -7.262710422e-06)
(0 -0 -7.272762193e-06)
(0 -0 -7.284249524e-06)
(0 -0 -7.29698268e-06)
(0 -0 -7.310734089e-06)
(0 -0 -7.325237866e-06)
(0 -0 -7.340189764e-06)
(0 -0 -7.355243478e-06)
(0 -0 -7.370010402e-06)
(0 -0 -7.384050222e-06)
(0 -0 -7.396853271e-06)
(0 -0 -7.407875371e-06)
(0 -0 -7.416658543e-06)
(0 -0 -8.36198371e-06)
(0 -0 -8.338737539e-06)
(0 -0 -8.313505495e-06)
(0 -0 -8.287932476e-06)
(0 -0 -8.262351187e-06)
(0 -0 -8.236827738e-06)
(0 -0 -8.211391844e-06)
(0 -0 -8.186082034e-06)
(0 -0 -8.160941618e-06)
(0 -0 -8.136010801e-06)
(0 -0 -8.111325806e-06)
(0 -0 -8.08692074e-06)
(0 -0 -8.062828626e-06)
(0 -0 -8.039081551e-06)
(0 -0 -8.015711711e-06)
(0 -0 -7.992753895e-06)
(0 -0 -7.970248532e-06)
(0 -0 -7.948243374e-06)
(0 -0 -7.92679243e-06)
(0 -0 -7.90595271e-06)
(0 -0 -7.885780579e-06)
(0 -0 -7.866329645e-06)
(0 -0 -7.847650775e-06)
(0 -0 -7.829793517e-06)
(0 -0 -7.812807422e-06)
(0 -0 -7.796742015e-06)
(0 -0 -7.781645286e-06)
(0 -0 -7.767561443e-06)
(0 -0 -7.754529243e-06)
(0 -0 -7.74258177e-06)
(0 -0 -7.731747495e-06)
(0 -0 -7.722051506e-06)
(0 -0 -7.713515095e-06)
(0 -0 -7.706152118e-06)
(0 -0 -7.6999619e-06)
(0 -0 -7.694920787e-06)
(0 -0 -7.690975181e-06)
(0 -0 -7.688037019e-06)
(0 -0 -7.685980831e-06)
(0 -0 -7.684642434e-06)
(0 -0 -7.683820659e-06)
(0 -0 -7.683280577e-06)
(0 -0 -7.682756083e-06)
(0 -0 -7.681951212e-06)
(0 -0 -7.680535158e-06)
(0 -0 -7.67816593e-06)
(0 -0 -7.67440031e-06)
(0 -0 -7.668767771e-06)
(0 -0 -7.660856073e-06)
(0 -0 -7.64993089e-06)
(0 -0 -8.739061339e-06)
(0 -0 -8.716546209e-06)
(0 -0 -8.692037321e-06)