/*--------------------------------*- C++ -*----------------------------------*\
| =========                 |                                                 |
| \\      /  F ield         | foam-extend: Open Source CFD                    |
|  \\    /   O peration     | Version:     4.1                                |
|   \\  /    A nd           | Web:         http://www.foam-extend.org         |
|    \\/     M anipulation  |                                                 |
\*---------------------------------------------------------------------------*/
FoamFile
{
    version     2.0;
    format      ascii;
    class       regIOobject;
    location    "90000/uniform";
    object      profilingInfo;
}
// * * * * * * * * * * * * * * * * * * * * * * * * * * * * * * * * * * * * * //

profilingInfo
(

    {
        id              13;
        parentId        11;
        description     "Foam::Time::writeObject - outputTime";
        calls           9;
        totalTime       2.252104;
        childTime       0;
        onStack         1;
    }

    {
        id              11;
        parentId        1;
        description     "Foam::Time::writeObject";
        calls           9000;
        totalTime       2.287446;
        childTime       2.252104;
        onStack         1;
    }

    {
        id              1;
        description     "application::main";
        calls           1;
        totalTime       612.313766;
        childTime       504.451226;
        onStack         1;
    }

    {
        id              12;
        parentId        1;
        description     "FO::FFT_probes::execute";
        calls           8999;
        totalTime       1.692103;
        childTime       0;
        onStack         0;
    }

    {
        id              3;
        parentId        2;
        description     "FO::FFT_probes::start";
        calls           1;
        totalTime       3.096156;
        childTime       0;
        onStack         0;
    }

    {
        id              2;
        parentId        1;
        description     "functionObjectList::read";
        calls           1;
        totalTime       3.249794;
        childTime       3.096156;
        onStack         0;
    }

    {
        id              9;
        parentId        1;
        description     "fvMatrix::solve_T";
        calls           9000;
        totalTime       6.953132;
        childTime       3.769214;
        onStack         0;
    }

    {
        id              4;
        parentId        1;
        description     "fvMatrix::solve_U";
        calls           9000;
        totalTime       35.454121;
        childTime       27.556357;
        onStack         0;
    }

    {
        id              7;
        parentId        1;
        description     "fvMatrix::solve_p";
        calls           18000;
        totalTime       454.81463;
        childTime       447.334181;
        onStack         0;
    }

    {
        id              10;
        parentId        9;
        description     "lduMatrix::solver_T";
        calls           9000;
        totalTime       3.769214;
        childTime       0;
        onStack         0;
    }

    {
        id              5;
        parentId        4;
        description     "lduMatrix::solver_Ux";
        calls           9000;
        totalTime       13.046783;
        childTime       0;
        onStack         0;
    }

    {
        id              6;
        parentId        4;
        description     "lduMatrix::solver_Uy";
        calls           9000;
        totalTime       14.509574;
        childTime       0;
        onStack         0;
    }

    {
        id              8;
        parentId        7;
        description     "lduMatrix::solver_p";
        calls           18000;
        totalTime       447.334181;
        childTime       0;
        onStack         0;
    }
);


// ************************************************************************* //
