/*--------------------------------*- C++ -*----------------------------------*\
| =========                 |                                                 |
| \\      /  F ield         | foam-extend: Open Source CFD                    |
|  \\    /   O peration     | Version:     4.1                                |
|   \\  /    A nd           | Web:         http://www.foam-extend.org         |
|    \\/     M anipulation  |                                                 |
\*---------------------------------------------------------------------------*/
FoamFile
{
    version     2.0;
    format      ascii;
    class       volScalarField;
    location    "90000";
    object      p;
}
// * * * * * * * * * * * * * * * * * * * * * * * * * * * * * * * * * * * * * //

dimensions      [0 2 -2 0 0 0 0];

internalField   nonuniform List<scalar> 
15920
(
2.133739832e-08
1.851352638e-08
1.632548088e-08
1.521202671e-08
1.442017935e-08
1.360386899e-08
1.281061669e-08
1.2118353e-08
1.153054019e-08
1.10256837e-08
1.059294786e-08
1.022900915e-08
9.928901186e-09
9.684594229e-09
9.487103042e-09
9.327822802e-09
9.198823579e-09
9.092939221e-09
9.003908812e-09
8.926467208e-09
8.856328992e-09
8.790101383e-09
8.72516969e-09
8.659576617e-09
8.591902458e-09
8.521156315e-09
8.446680491e-09
8.368068719e-09
8.285099287e-09
8.197682482e-09
8.105820481e-09
8.009577741e-09
7.909060525e-09
7.804408653e-09
7.69576619e-09
7.583280932e-09
7.467107057e-09
7.347404571e-09
7.224339494e-09
7.098086355e-09
6.968834253e-09
6.83678858e-09
6.702136046e-09
6.565084445e-09
6.42586504e-09
6.284724093e-09
6.141921811e-09
5.997731227e-09
5.852437389e-09
5.706336912e-09
1.602894597e-08
1.567995034e-08
1.511582398e-08
1.459305256e-08
1.408891661e-08
1.352215676e-08
1.291835987e-08
1.233301641e-08
1.179201929e-08
1.130167328e-08
1.086598946e-08
1.048860728e-08
1.016923693e-08
9.903275066e-09
9.683727678e-09
9.503004121e-09
9.353729755e-09
9.229060992e-09
9.122897917e-09
9.030023436e-09
8.94612908e-09
8.867753924e-09
8.792185415e-09
8.717353153e-09
8.641701721e-09
8.564096843e-09
8.483742815e-09
8.400104896e-09
8.312844079e-09
8.221765281e-09
8.126776934e-09
8.027859451e-09
7.925039438e-09
7.81837018e-09
7.707951091e-09
7.593909633e-09
7.476379227e-09
7.355496615e-09
7.231405107e-09
7.104257032e-09
6.974217436e-09
6.841470257e-09
6.706232829e-09
6.568706896e-09
6.429108684e-09
6.287680785e-09
6.144682764e-09
6.000387055e-09
5.855079193e-09
5.709057214e-09
1.549818454e-08
1.533658665e-08
1.489791988e-08
1.434336142e-08
1.380977864e-08
1.330005861e-08
1.279471151e-08
1.230534887e-08
1.184921826e-08
1.143278452e-08
1.10564952e-08
1.072044232e-08
1.042426689e-08
1.016586039e-08
9.941743394e-09
9.747859301e-09
9.580000121e-09
9.433950638e-09
9.305618117e-09
9.191185657e-09
9.087227276e-09
8.990760527e-09
8.899252776e-09
8.810602666e-09
8.723132218e-09
8.635523602e-09
8.546752678e-09
8.456040816e-09
8.362813411e-09
8.266660781e-09
8.167303159e-09
8.064561434e-09
7.958334209e-09
7.848581926e-09
7.735317899e-09
7.618592409e-09
7.498479627e-09
7.375073976e-09
7.248490671e-09
7.118866279e-09
6.986359098e-09
6.85114825e-09
6.713430289e-09
6.57341296e-09
6.431325926e-09
6.287422947e-09
6.141976124e-09
5.995271516e-09
5.847609306e-09
5.699303098e-09
1.449926549e-08
1.435766567e-08
1.40766615e-08
1.372118781e-08
1.33514053e-08
1.297890045e-08
1.259747515e-08
1.221418664e-08
1.184362956e-08
1.149515626e-08
1.117210364e-08
1.087588467e-08
1.060739395e-08
1.036642729e-08
1.015152002e-08
9.96036581e-09
9.790227923e-09
9.638173389e-09
9.501223325e-09
9.37649158e-09
9.261298917e-09
9.153242095e-09
9.050222911e-09
8.950452413e-09
8.852439712e-09
8.754960322e-09
8.657021353e-09
8.557832027e-09
8.456775584e-09
8.353380978e-09
8.247296607e-09
8.138267917e-09
8.026119431e-09
7.910740587e-09
7.792074615e-09
7.670109257e-09
7.54486926e-09
7.41641155e-09
7.284822705e-09
7.150217333e-09
7.01273665e-09
6.872547852e-09
6.729843293e-09
6.584839183e-09
6.437775474e-09
6.288915865e-09
6.138546161e-09
5.986973254e-09
5.83452174e-09
5.681530672e-09
1.385330229e-08
1.378359159e-08
1.361492342e-08
1.336865345e-08
1.308277739e-08
1.277875489e-08
1.246336827e-08
1.214327341e-08
1.182816485e-08
1.15260052e-08
1.124106786e-08
1.09754695e-08
1.073043408e-08
1.050632947e-08
1.030251921e-08
1.011757525e-08
9.949615218e-09
9.796536152e-09
9.656148315e-09
9.526276018e-09
9.404843248e-09
9.289933842e-09
9.179823812e-09
9.072993328e-09
8.968126105e-09
8.864099984e-09
8.759971638e-09
8.654958893e-09
8.548422401e-09
8.439846932e-09
8.328823859e-09
8.215035731e-09
8.098243022e-09
7.978273217e-09
7.855012315e-09
7.728397855e-09
7.598412912e-09
7.46508123e-09
7.328463923e-09
7.188657161e-09
7.045792987e-09
6.900037412e-09
6.751585949e-09
6.600666417e-09
6.447537645e-09
6.292487139e-09
6.13582896e-09
5.977901797e-09
5.819065466e-09
5.659697113e-09
1.335742665e-08
1.330851339e-08
1.318608254e-08
1.300020706e-08
1.277705455e-08
1.253464081e-08
1.22803964e-08
1.201925548e-08
1.175762256e-08
1.150176191e-08
1.125597297e-08
1.102275923e-08
1.080361638e-08
1.05993185e-08
1.040989943e-08
1.023473959e-08
1.007276753e-08
9.922638336e-09
9.78284948e-09
9.651825677e-09
9.527992768e-09
9.409837265e-09
9.29594672e-09
9.185033211e-09
9.075944971e-09
8.967669249e-09
8.859328257e-09
8.750170671e-09
8.639561125e-09
8.526969318e-09
8.41195897e-09
8.294177379e-09
8.173346064e-09
8.049252618e-09
7.921744251e-09
7.790723235e-09
7.65614299e-09
7.518002933e-09
7.376347003e-09
7.231253694e-09
7.082842888e-09
6.931284101e-09
6.776773707e-09
6.619550235e-09
6.45989174e-09
6.298111185e-09
6.134553324e-09
5.969591485e-09
5.803623532e-09
5.637067875e-09
1.296348915e-08
1.292684862e-08
1.283627181e-08
1.269707334e-08
1.252538401e-08
1.233341685e-08
1.212748499e-08
1.191217728e-08
1.169270776e-08
1.147424074e-08
1.12607333e-08
1.10547923e-08
1.085810367e-08
1.067170928e-08
1.049605625e-08
1.033104189e-08
1.017613311e-08
1.00305004e-08
9.893121089e-09
9.762856217e-09
9.63851497e-09
9.518908557e-09
9.402890599e-09
9.289384099e-09
9.177397816e-09
9.066034636e-09
8.95449404e-09
8.842070438e-09
8.728149111e-09
8.612200945e-09
8.49377644e-09
8.372499391e-09
8.248061339e-09
8.120216987e-09
7.98877839e-09
7.853612036e-09
7.71464078e-09
7.571837622e-09
7.425219537e-09
7.274858524e-09
7.120875052e-09
6.963426905e-09
6.802728879e-09
6.639036053e-09
6.472644275e-09
6.30389099e-09
6.13315242e-09
5.960839068e-09
5.787390994e-09
5.613272753e-09
1.2647124e-08
1.26193234e-08
1.255039062e-08
1.244299557e-08
1.230756458e-08
1.215264018e-08
1.198345974e-08
1.180416184e-08
1.161902498e-08
1.143215858e-08
1.124689085e-08
1.106562664e-08
1.089004396e-08
1.072127034e-08
1.055994358e-08
1.040625019e-08
1.026000183e-08
1.012073019e-08
9.987769079e-09
9.860318269e-09
9.737496429e-09
9.61838633e-09
9.502071197e-09
9.387661433e-09
9.274312983e-09
9.161239151e-09
9.047717521e-09
8.933093308e-09
8.816780102e-09
8.698258896e-09
8.577076573e-09
8.452843492e-09
8.325229102e-09
8.193962461e-09
8.058834563e-09
7.91968764e-09
7.776413039e-09
7.628957294e-09
7.477325591e-09
7.321578813e-09
7.161829286e-09
6.998240998e-09
6.831033344e-09
6.660476348e-09
6.486889504e-09
6.310641237e-09
6.132145881e-09
5.951858802e-09
5.770270704e-09
5.587901283e-09
1.238975567e-08
1.236794215e-08
1.231375553e-08
1.222869469e-08
1.212005621e-08
1.199393798e-08
1.185432014e-08
1.170452834e-08
1.154796504e-08
1.138789525e-08
1.122707531e-08
1.106763717e-08
1.091116598e-08
1.075879515e-08
1.061125456e-08
1.046890422e-08
1.033178542e-08
1.019968504e-08
1.007219678e-08
9.948772448e-09
9.828765787e-09
9.711470632e-09
9.596152975e-09
9.482076199e-09
9.368519835e-09
9.254792972e-09
9.140243648e-09
9.024265467e-09
8.906301407e-09
8.785845937e-09
8.662445665e-09
8.535704392e-09
8.405280548e-09
8.270880696e-09
8.13226149e-09
7.989239367e-09
7.841687237e-09
7.689535398e-09
7.532773084e-09
7.371448397e-09
7.205669089e-09
7.035603347e-09
6.861480547e-09
6.683590495e-09
6.502281889e-09
6.317960304e-09
6.13108488e-09
5.942163425e-09
5.751746156e-09
5.560418259e-09
1.217857206e-08
1.216107085e-08
1.211760177e-08
1.204907279e-08
1.196079128e-08
1.185713168e-08
1.174099894e-08
1.161497281e-08
1.148177215e-08
1.134403431e-08
1.120403888e-08
1.106362328e-08
1.092421837e-08
1.078689743e-08
1.065240557e-08
1.052118429e-08
1.039340637e-08
1.026901988e-08
1.014779293e-08
1.002935403e-08
9.913227765e-09
9.798866493e-09
9.685677453e-09
9.573045189e-09
9.460349524e-09
9.346979157e-09
9.232341309e-09
9.11587039e-09
8.997034394e-09
8.875340216e-09
8.750338011e-09
8.621616926e-09
8.488811874e-09
8.35160984e-09
8.209749393e-09
8.06302337e-09
7.911281114e-09
7.754431204e-09
7.592444578e-09
7.4253575e-09
7.253273875e-09
7.076366491e-09
6.894877995e-09
6.709121164e-09
6.519477884e-09
6.326396912e-09
6.130390154e-09
5.932027219e-09
5.731928342e-09
5.530755972e-09
1.200441581e-08
1.199014969e-08
1.195471304e-08
1.189866249e-08
1.182597782e-08
1.173986882e-08
1.164246081e-08
1.153573556e-08
1.142185265e-08
1.130293325e-08
1.118083921e-08
1.105711441e-08
1.093300582e-08
1.080948625e-08
1.068726651e-08
1.056680958e-08
1.044835394e-08
1.033194392e-08
1.021746168e-08
1.010465784e-08
9.993179539e-09
9.882595987e-09
9.772420677e-09
9.662130367e-09
9.551181381e-09
9.439024901e-09
9.32511719e-09
9.208918578e-09
9.089918161e-09
8.967626358e-09
8.841583198e-09
8.71136546e-09
8.576591583e-09
8.436925327e-09
8.292078023e-09
8.141813187e-09
7.985952101e-09
7.824378642e-09
7.657043953e-09
7.483971037e-09
7.30525852e-09
7.121083429e-09
6.931703134e-09
6.737456424e-09
6.53876317e-09
6.336122393e-09
6.130108133e-09
5.921363149e-09
5.710590784e-09
5.498545338e-09
1.186042776e-08
1.184864372e-08
1.18193697e-08
1.177295018e-08
1.171245292e-08
1.164028807e-08
1.155801653e-08
1.146714288e-08
1.136936371e-08
1.126637395e-08
1.115968459e-08
1.105057749e-08
1.094011816e-08
1.08291639e-08
1.071836439e-08
1.060816753e-08
1.04988343e-08
1.039045936e-08
1.028299365e-08
1.017626673e-08
1.007000835e-08
9.963868728e-09
9.857436791e-09
9.750255366e-09
9.641834915e-09
9.531667038e-09
9.419245449e-09
9.304053065e-09
9.185572468e-09
9.063313275e-09
8.936806724e-09
8.80561073e-09
8.669316826e-09
8.527556166e-09
8.380005635e-09
8.226394201e-09
8.066509597e-09
7.900205208e-09
7.727406879e-09
7.548119417e-09
7.362432339e-09
7.170524758e-09
6.972668897e-09
6.769232166e-09
6.56067736e-09
6.347560988e-09
6.130529279e-09
5.910311373e-09
5.687709905e-09
5.463589244e-09
1.1741345e-08
1.173150888e-08
1.170707338e-08
1.166825113e-08
1.161745615e-08
1.15565304e-08
1.148662497e-08
1.140887691e-08
1.132461399e-08
1.123518791e-08
1.114182083e-08
1.104556778e-08
1.094732445e-08
1.084782823e-08
1.074765248e-08
1.064720663e-08
1.054674469e-08
1.044637895e-08
1.034609541e-08
1.02457696e-08
1.014518222e-08
1.004403472e-08
9.941965048e-09
9.838562834e-09
9.733375548e-09
9.625924308e-09
9.515698779e-09
9.402192237e-09
9.284896641e-09
9.163305466e-09
9.03692507e-09
8.905282914e-09
8.767934202e-09
8.624469588e-09
8.474522891e-09
8.317778936e-09
8.153982253e-09
7.982946388e-09
7.804563162e-09
7.618811594e-09
7.42576617e-09
7.225604033e-09
7.018610614e-09
6.805183194e-09
6.585832125e-09
6.361179544e-09
6.131955621e-09
5.898991497e-09
5.663208365e-09
5.425602854e-09
1.164304017e-08
1.163476496e-08
1.161420702e-08
1.158149455e-08
1.153855744e-08
1.148682497e-08
1.142715152e-08
1.136039652e-08
1.128759806e-08
1.12098318e-08
1.112808176e-08
1.104320866e-08
1.095595489e-08
1.086694197e-08
1.07766618e-08
1.068547292e-08
1.059360459e-08
1.050116511e-08
1.040815204e-08
1.031446317e-08
1.021990697e-08
1.012421433e-08
1.002704513e-08
9.928026032e-09
9.826715263e-09
9.722634704e-09
9.615285859e-09
9.504156498e-09
9.388720663e-09
9.268445392e-09
9.142802961e-09
9.011279586e-09
8.873383017e-09
8.728651228e-09
8.576661837e-09
8.417042265e-09
8.249480793e-09
8.073738333e-09
7.889660546e-09
7.697189747e-09
7.496376207e-09
7.287388107e-09
7.070519828e-09
6.846197801e-09
6.614983631e-09
6.37757399e-09
6.134796976e-09
5.887604299e-09
5.637058442e-09
5.384314904e-09
1.156220841e-08
1.155520823e-08
1.153781773e-08
1.15101105e-08
1.147364858e-08
1.142955512e-08
1.137846807e-08
1.132103765e-08
1.125807527e-08
1.119043546e-08
1.11189074e-08
1.104418822e-08
1.096688613e-08
1.088751614e-08
1.080648996e-08
1.072411022e-08
1.064057124e-08
1.055596344e-08
1.04702793e-08
1.038342042e-08
1.0295206e-08
1.020538006e-08
1.011362659e-08
1.001954839e-08
9.922718784e-09
9.822666123e-09
9.718881117e-09
9.610826646e-09
9.497945311e-09
9.379667434e-09
9.255419687e-09
9.124633718e-09
8.986755202e-09
8.841254047e-09
8.68763578e-09
8.525453994e-09
8.354323908e-09
8.173936976e-09
7.984076245e-09
7.784631948e-09
7.575616518e-09
7.357178195e-09
7.12961275e-09
6.893372835e-09
6.649074076e-09
6.397496907e-09
6.139583191e-09
5.876427152e-09
5.609260207e-09
5.339429714e-09
1.149615181e-08
1.149021265e-08
1.147545772e-08
1.145192548e-08
1.14208916e-08
1.13832475e-08
1.133947204e-08
1.129005795e-08
1.123564013e-08
1.117689692e-08
1.111445923e-08
1.104888796e-08
1.098067596e-08
1.091024306e-08
1.083792581e-08
1.076397055e-08
1.068853202e-08
1.061167478e-08
1.053337581e-08
1.045352822e-08
1.037195235e-08
1.028838898e-08
1.0202509e-08
1.011392321e-08
1.002219465e-08
9.926834989e-09
9.827310409e-09
9.723050952e-09
9.613458289e-09
9.497912578e-09
9.37578017e-09
9.246422631e-09
9.10920695e-09
8.963517157e-09
8.80876752e-09
8.644417356e-09
8.469987407e-09
8.285077822e-09
8.089387305e-09
7.88273298e-09
7.665070017e-09
7.436510265e-09
7.197338987e-09
6.948029067e-09
6.689251251e-09
6.421878649e-09
6.146984125e-09
5.865830181e-09
5.579851335e-09
5.290628719e-09
1.144262665e-08
1.143758642e-08
1.142506416e-08
1.140507613e-08
1.137867021e-08
1.134655925e-08
1.130910454e-08
1.126668057e-08
1.1219785e-08
1.116895621e-08
1.111469708e-08
1.105745607e-08
1.099762833e-08
1.093555069e-08
1.087149172e-08
1.080564439e-08
1.07381228e-08
1.066896187e-08
1.059811815e-08
1.052547235e-08
1.04508241e-08
1.037390577e-08
1.029438187e-08
1.02118521e-08
1.012585546e-08
1.003587573e-08
9.941345799e-09
9.841653536e-09
9.736147732e-09
9.624144469e-09
9.504934708e-09
9.37779341e-09
9.241990394e-09
9.096803169e-09
8.941531918e-09
8.775516776e-09
8.59815743e-09
8.408934868e-09
8.20743496e-09
7.993373365e-09
7.766621204e-09
7.527230538e-09
7.275458285e-09
7.011786883e-09
6.736939892e-09
6.451890508e-09
6.157861176e-09
5.856313471e-09
5.548927843e-09
5.237572666e-09
1.139973299e-08
1.139546766e-08
1.138486986e-08
1.136794255e-08
1.134554875e-08
1.131826149e-08
1.128635509e-08
1.125011544e-08
1.120993369e-08
1.116623725e-08
1.1119426e-08
1.106985646e-08
1.101784244e-08
1.096365001e-08
1.090748824e-08
1.084950185e-08
1.078976623e-08
1.072828629e-08
1.066499468e-08
1.05997499e-08
1.053233794e-08
1.046247564e-08
1.03898097e-08
1.031391774e-08
1.023431153e-08
1.015044071e-08
1.006169583e-08
9.967412029e-09
9.866873581e-09
9.759319362e-09
9.643949748e-09
9.519935481e-09
9.386428816e-09
9.242577295e-09
9.08754045e-09
8.920509524e-09
8.740730436e-09
8.547529722e-09
8.340343361e-09
8.118748027e-09
7.882494616e-09
7.63154284e-09
7.366094661e-09
7.086623716e-09
6.793898356e-09
6.488996491e-09
6.173310055e-09
5.848536637e-09
5.516656368e-09
5.179893116e-09
1.136583366e-08
1.136224744e-08
1.135333634e-08
1.133909622e-08
1.132023728e-08
1.129722153e-08
1.127025914e-08
1.12395701e-08
1.120546307e-08
1.116827776e-08
1.112833183e-08
1.108590756e-08
1.104125209e-08
1.099457262e-08
1.094602748e-08
1.089572105e-08
1.084369228e-08
1.078991753e-08
1.073430525e-08
1.06766947e-08
1.06168548e-08
1.055448256e-08
1.04892027e-08
1.042056749e-08
1.034805745e-08
1.027108261e-08
1.018898393e-08
1.010103531e-08
1.000644643e-08
9.904366624e-09
9.793890626e-09
9.674066644e-09
9.5439074e-09
9.402404451e-09
9.24854621e-09
9.081339921e-09
8.899837811e-09
8.703167663e-09
8.490567901e-09
8.261427197e-09
8.015327996e-09
7.752092488e-09
7.471828133e-09
7.174969296e-09
6.862312005e-09
6.535039311e-09
6.19473386e-09
5.84337309e-09
5.483303279e-09
5.117190957e-09
1.133949437e-08
1.133651271e-08
1.132910337e-08
1.131725954e-08
1.130156297e-08
1.128238646e-08
1.125989327e-08
1.1234255e-08
1.120571675e-08
1.11745495e-08
1.114100596e-08
1.11053095e-08
1.106765404e-08
1.10281989e-08
1.098706267e-08
1.094431094e-08
1.089995746e-08
1.085395266e-08
1.080618398e-08
1.075647241e-08
1.070456892e-08
1.065015148e-08
1.059282289e-08
1.053210871e-08
1.046745584e-08
1.039823159e-08
1.032372304e-08
1.024313684e-08
1.015559975e-08
1.006016053e-08
9.95579395e-09
9.841407496e-09
9.715851473e-09
9.577933129e-09
9.426435304e-09
9.26014009e-09
9.077857919e-09
8.878463042e-09
8.660936143e-09
8.424414293e-09
8.168246903e-09
7.892055585e-09
7.595795245e-09
7.279813254e-09
6.944902656e-09
6.592344373e-09
6.223932242e-09
5.841974278e-09
5.449264984e-09
5.049026181e-09
1.131943914e-08
1.131700353e-08
1.131095073e-08
1.130127457e-08
1.128844712e-08
1.127276873e-08
1.125436905e-08
1.12333849e-08
1.121001308e-08
1.118447135e-08
1.11569626e-08
1.11276642e-08
1.109672724e-08
1.106427419e-08
1.103039329e-08
1.09951266e-08
1.095846122e-08
1.092032809e-08
1.088059883e-08
1.083907995e-08
1.079550767e-08
1.074954363e-08
1.070077083e-08
1.064868965e-08
1.059271434e-08
1.053216959e-08
1.046628728e-08
1.039420347e-08
1.03149563e-08
1.022748526e-08
1.013063277e-08
1.002314844e-08
9.903697172e-09
9.770871871e-09
9.623211558e-09
9.459225657e-09
9.277425706e-09
9.076365982e-09
8.854694559e-09
8.611214882e-09
8.344956346e-09
8.055251761e-09
7.74181972e-09
7.404848899e-09
7.045078358e-09
6.663864949e-09
6.263228169e-09
5.845863455e-09
5.415116419e-09
4.974912442e-09
1.130451678e-08
1.130258077e-08
1.129776902e-08
1.129007854e-08
1.127988657e-08
1.1267434e-08
1.125282725e-08
1.123617927e-08
1.12176506e-08
1.119741923e-08
1.117565114e-08
1.115248705e-08
1.112804337e-08
1.110242593e-08
1.107570266e-08
1.104788944e-08
1.101895641e-08
1.09888246e-08
1.095735632e-08
1.092434867e-08
1.088952842e-08
1.085254608e-08
1.08129699e-08
1.077027997e-08
1.072386222e-08
1.06730022e-08
1.061687874e-08
1.055455776e-08
1.048498692e-08
1.040699142e-08
1.031927188e-08
1.022040514e-08
1.010884886e-08
9.982951068e-09
9.840965778e-09
9.681076493e-09
9.501429669e-09
9.300180367e-09
9.075551574e-09
8.825907675e-09
8.549841786e-09
8.246276119e-09
7.914573815e-09
7.5546581e-09
7.167130358e-09
6.753374977e-09
6.315637627e-09
5.857063169e-09
5.381678996e-09
4.894311672e-09
1.12936755e-08
1.129220152e-08
1.128853726e-08
1.128268511e-08
1.127493908e-08
1.126549099e-08
1.12544324e-08
1.124186138e-08
1.122791291e-08
1.121273525e-08
1.119646444e-08
1.117921103e-08
1.116109285e-08
1.114219546e-08
1.112255872e-08
1.110218921e-08
1.108105519e-08
1.105907382e-08
1.103610404e-08
1.101194134e-08
1.098631091e-08
1.095885999e-08
1.092915015e-08
1.089664932e-08
1.08607231e-08
1.082062537e-08
1.077548853e-08
1.072431363e-08
1.066596097e-08
1.059914134e-08
1.0522409e-08
1.043415728e-08
1.033261775e-08
1.021586431e-08
1.008182386e-08
9.928296793e-09
9.752990322e-09
9.553567348e-09
9.327712358e-09
9.073216327e-09
8.788083106e-09
8.470658828e-09
8.119782562e-09
7.734952198e-09
7.316495333e-09
6.86573118e-09
6.385105402e-09
5.878274512e-09
5.350112259e-09
4.806613673e-09
1.128594375e-08
1.128490036e-08
1.128230588e-08
1.127816979e-08
1.127271225e-08
1.126608408e-08
1.125836849e-08
1.124965736e-08
1.124007099e-08
1.122973217e-08
1.121874562e-08
1.120723636e-08
1.11953074e-08
1.11830204e-08
1.117041276e-08
1.115749542e-08
1.114423815e-08
1.113056113e-08
1.111632992e-08
1.110134831e-08
1.108534972e-08
1.106798851e-08
1.104883076e-08
1.102734392e-08
1.100288521e-08
1.097468891e-08
1.094185292e-08
1.090332458e-08
1.085788629e-08
1.080414115e-08
1.074049953e-08
1.066516728e-08
1.057613696e-08
1.04711834e-08
1.034786672e-08
1.020354642e-08
1.003541061e-08
9.840523494e-09
9.615894388e-09
9.358572847e-09
9.065775871e-09
8.735051132e-09
8.364475288e-09
7.952881505e-09
7.500106155e-09
7.007238389e-09
6.476846528e-09
5.913143831e-09
5.322047539e-09
4.711085343e-09
1.12804158e-08
1.127977557e-08
1.127818415e-08
1.127565955e-08
1.127235557e-08
1.126838856e-08
1.126383787e-08
1.125879298e-08
1.125336381e-08
1.124768114e-08
1.124181559e-08
1.123589788e-08
1.123002152e-08
1.122424781e-08
1.121862327e-08
1.12131663e-08
1.120785606e-08
1.120262702e-08
1.119736218e-08
1.119188436e-08
1.118594707e-08
1.117922498e-08
1.11713029e-08
1.116166296e-08
1.114967025e-08
1.113455681e-08
1.111540406e-08
1.109112387e-08
1.106043823e-08
1.10218582e-08
1.097366236e-08
1.091387537e-08
1.084024773e-08
1.075023965e-08
1.064101244e-08
1.050943131e-08
1.035208367e-08
1.016531777e-08
9.945308642e-09
9.688159808e-09
9.390049971e-09
9.04743144e-09
8.65728376e-09
8.217421815e-09
7.726851083e-09
7.186149668e-09
6.59783861e-09
5.966684381e-09
5.299864483e-09
4.606917748e-09
1.127624105e-08
1.127597921e-08
1.12753315e-08
1.127432542e-08
1.127305488e-08
1.127160801e-08
1.127006733e-08
1.126852371e-08
1.126707698e-08
1.126584691e-08
1.126494659e-08
1.126447231e-08
1.126451469e-08
1.126515647e-08
1.126645759e-08
1.126845086e-08
1.127113606e-08
1.127447266e-08
1.127837184e-08
1.128268776e-08
1.12872081e-08
1.129164331e-08
1.129561386e-08
1.129863537e-08
1.130010164e-08
1.129926541e-08
1.129521655e-08
1.12868578e-08
1.127287811e-08
1.125172356e-08
1.122156586e-08
1.118026866e-08
1.112535292e-08
1.105396486e-08
1.096285015e-08
1.084833798e-08
1.070633901e-08
1.0532365e-08
1.032158125e-08
1.006890513e-08
9.769163435e-09
9.417321259e-09
9.008795897e-09
8.53986598e-09
8.008176031e-09
7.413315838e-09
6.757424629e-09
6.045735761e-09
5.286944631e-09
4.493255157e-09
1.12726168e-08
1.127271078e-08
1.127295201e-08
1.127337793e-08
1.127402816e-08
1.127496714e-08
1.12762827e-08
1.127807457e-08
1.128045294e-08
1.128351172e-08
1.128739582e-08
1.129219268e-08
1.12980113e-08
1.130495349e-08
1.131309725e-08
1.132249946e-08
1.133319074e-08
1.134516608e-08
1.135837671e-08
1.137272181e-08
1.138803867e-08
1.140409072e-08
1.142055361e-08
1.143699876e-08
1.14528741e-08
1.146748178e-08
1.147995228e-08
1.148921488e-08
1.149396422e-08
1.149262221e-08
1.148329478e-08
1.146372354e-08
1.14312342e-08
1.138268408e-08
1.13144117e-08
1.122219163e-08
1.110120038e-08
1.094600321e-08
1.075057667e-08
1.050838414e-08
1.021252379e-08
9.855973012e-09
9.431958088e-09
8.934475737e-09
8.358982595e-09
7.703249119e-09
6.968339608e-09
6.159617143e-09
5.287572001e-09
4.368140445e-09
1.126878574e-08
1.126921483e-08
1.127029252e-08
1.127206637e-08
1.127452709e-08
1.127771963e-08
1.12817402e-08
1.128669898e-08
1.129270759e-08
1.129988149e-08
1.130836969e-08
1.131826777e-08
1.132969739e-08
1.134278869e-08
1.135765158e-08
1.137437506e-08
1.139302792e-08
1.141365129e-08
1.143624928e-08
1.146078032e-08
1.148714719e-08
1.151518492e-08
1.154464599e-08
1.157518299e-08
1.160632763e-08
1.163746574e-08
1.166780797e-08
1.169635548e-08
1.17218597e-08
1.174277468e-08
1.175720095e-08
1.176282129e-08
1.175682947e-08
1.17358526e-08
1.169586789e-08
1.163211672e-08
1.153902353e-08
1.141013094e-08
1.123806679e-08
1.101456397e-08
1.073056353e-08
1.037644243e-08
9.942416431e-09
9.419169433e-09
8.798752786e-09
8.075783422e-09
7.248934116e-09
6.322657455e-09
5.308949172e-09
4.228660096e-09
1.126403737e-08
1.126478135e-08
1.126664292e-08
1.12696797e-08
1.127383883e-08
1.127914969e-08
1.128571949e-08
1.129367358e-08
1.130313249e-08
1.131422204e-08
1.132707625e-08
1.134187082e-08
1.135871987e-08
1.137776925e-08
1.139917362e-08
1.142306704e-08
1.144956452e-08
1.147876206e-08
1.151072896e-08
1.154549727e-08
1.158305154e-08
1.16233174e-08
1.166614717e-08
1.171130213e-08
1.175843058e-08
1.180704121e-08
1.185647124e-08
1.190584831e-08
1.195404398e-08
1.199961696e-08
1.204074459e-08
1.207514262e-08
1.209997227e-08
1.211173287e-08
1.210613822e-08
1.207797919e-08
1.202097897e-08
1.192765099e-08
1.17891736e-08
1.15953063e-08
1.1334388e-08
1.099347902e-08
1.055872864e-08
1.001607267e-08
9.352373829e-09
8.557108004e-09
7.62459836e-09
6.556710719e-09
5.365772386e-09
4.077508125e-09
1.125770906e-08
1.125874668e-08
1.126133719e-08
1.126554798e-08
1.127128758e-08
1.127857315e-08
1.128752451e-08
1.129828243e-08
1.131098075e-08
1.132575738e-08
1.134276853e-08
1.136218573e-08
1.138419748e-08
1.140896766e-08
1.143667601e-08
1.146750889e-08
1.150164246e-08
1.153923736e-08
1.158043796e-08
1.162536275e-08
1.167409401e-08
1.172666652e-08
1.178305548e-08
1.184315914e-08
1.190677705e-08
1.19735831e-08
1.204309272e-08
1.211462211e-08
1.218723714e-08
1.225968925e-08
1.233033719e-08
1.239705233e-08
1.245710366e-08
1.250701804e-08
1.254241206e-08
1.255779477e-08
1.254634303e-08
1.24996532e-08
1.240747928e-08
1.225748174e-08
1.203503182e-08
1.172314099e-08
1.130262232e-08
1.07526648e-08
1.005206452e-08
9.181516925e-09
8.127176563e-09
6.885724918e-09
5.469681217e-09
3.911922024e-09
1.12491866e-08
1.125049474e-08
1.125375519e-08
1.125904479e-08
1.126623814e-08
1.127534311e-08
1.128649312e-08
1.129984575e-08
1.131554912e-08
1.133375805e-08
1.135464752e-08
1.137841363e-08
1.140526921e-08
1.143543204e-08
1.146913743e-08
1.150659855e-08
1.154805427e-08
1.159374443e-08
1.164390288e-08
1.169874674e-08
1.175846709e-08
1.182322355e-08
1.189313613e-08
1.196826779e-08
1.204860372e-08
1.213402604e-08
1.2224282e-08
1.231894279e-08
1.241735023e-08
1.25185495e-08
1.262120522e-08
1.272349599e-08
1.282298026e-08
1.291642645e-08
1.299960142e-08
1.306701038e-08
1.311157999e-08
1.312427807e-08
1.309367131e-08
1.300543602e-08
1.284185751e-08
1.258138377e-08
1.219834411e-08
1.166302623e-08
1.094237759e-08
1.000213596e-08
8.810802518e-09
7.349296977e-09
5.622756062e-09
3.68088727e-09
1.123790591e-08
1.123945917e-08
1.124332547e-08
1.124959079e-08
1.125810034e-08
1.126885514e-08
1.128200261e-08
1.129771759e-08
1.131616365e-08
1.133751311e-08
1.136196435e-08
1.138974116e-08
1.14210872e-08
1.145626483e-08
1.149553665e-08
1.153920505e-08
1.158756211e-08
1.164091299e-08
1.169958556e-08
1.176393266e-08
1.183425147e-08
1.191083358e-08
1.199396383e-08
1.208389518e-08
1.218083065e-08
1.228490102e-08
1.23961366e-08
1.251442887e-08
1.263947951e-08
1.277073522e-08
1.290730383e-08
1.304784426e-08
1.319042106e-08
1.33323143e-08
1.346977383e-08
1.359770226e-08
1.370924524e-08
1.379526704e-08
1.384369264e-08
1.383870399e-08
1.37597992e-08
1.358076049e-08
1.32686833e-08
1.278326546e-08
1.207671865e-08
1.109473682e-08
9.777863436e-09
8.071716266e-09
5.931530274e-09
3.404258087e-09
1.122335619e-08
1.12251266e-08
1.122952907e-08
1.123665834e-08
1.124633462e-08
1.125855408e-08
1.127347799e-08
1.129129808e-08
1.131219382e-08
1.133635571e-08
1.136400532e-08
1.139539505e-08
1.143080208e-08
1.147052475e-08
1.151488041e-08
1.15642171e-08
1.161891055e-08
1.167933485e-08
1.17458937e-08
1.181916971e-08
1.189947115e-08
1.198725091e-08
1.208298184e-08
1.218712621e-08
1.230013037e-08
1.242240695e-08
1.255431321e-08
1.269611914e-08
1.284796421e-08
1.300980095e-08
1.318131787e-08
1.336183399e-08
1.355015565e-08
1.374438372e-08
1.394165346e-08
1.413778204e-08
1.432678948e-08
1.450024961e-08
1.464641617e-08
1.474905106e-08
1.478588238e-08
1.472661898e-08
1.453066504e-08
1.414460867e-08
1.350124512e-08
1.251910249e-08
1.110871797e-08
9.178065921e-09
6.611013641e-09
3.391980909e-09
1.120508404e-08
1.120704103e-08
1.121190445e-08
1.12197771e-08
1.123045847e-08
1.124394148e-08
1.126040036e-08
1.128004282e-08
1.130306376e-08
1.132967165e-08
1.136011071e-08
1.139466114e-08
1.143363325e-08
1.147736537e-08
1.152622574e-08
1.158061188e-08
1.164094305e-08
1.170765596e-08
1.178111697e-08
1.186272952e-08
1.195216267e-08
1.205021568e-08
1.21575822e-08
1.22749505e-08
1.240302549e-08
1.254252056e-08
1.269414982e-08
1.285860542e-08
1.303652659e-08
1.322845868e-08
1.343479025e-08
1.365566447e-08
1.389085575e-08
1.413959718e-08
1.440033612e-08
1.467038775e-08
1.494544368e-08
1.521887261e-08
1.548071784e-08
1.571624274e-08
1.590381035e-08
1.601172562e-08
1.599375665e-08
1.578222753e-08
1.528112274e-08
1.435295342e-08
1.283682582e-08
1.052597988e-08
7.303377717e-09
3.140654308e-09
1.11826984e-08
1.118480914e-08
1.119005316e-08
1.119854027e-08
1.121005327e-08
1.122458314e-08
1.124231559e-08
1.126347268e-08
1.128826367e-08
1.131691373e-08
1.134968802e-08
1.138689259e-08
1.142886894e-08
1.147599382e-08
1.152868318e-08
1.158739642e-08
1.1652646e-08
1.172503168e-08
1.180531133e-08
1.18932485e-08
1.199044872e-08
1.20975168e-08
1.221519316e-08
1.234437498e-08
1.248602028e-08
1.264114813e-08
1.281084153e-08
1.29962357e-08
1.319850464e-08
1.341884016e-08
1.36584111e-08
1.391830466e-08
1.419943997e-08
1.45024401e-08
1.482743748e-08
1.517378732e-08
1.553964514e-08
1.592133891e-08
1.631242493e-08
1.670225441e-08
1.707374806e-08
1.73997864e-08
1.763736902e-08
1.771680997e-08
1.752518261e-08
1.686396018e-08
1.542530002e-08
1.257696267e-08
7.819656517e-09
2.098588874e-11
1.115587593e-08
1.115810578e-08
1.116364554e-08
1.117261046e-08
1.118477069e-08
1.120011608e-08
1.121884198e-08
1.124118259e-08
1.126735964e-08
1.129761285e-08
1.133222554e-08
1.137152609e-08
1.141588322e-08
1.146570674e-08
1.152145231e-08
1.15836266e-08
1.165279338e-08
1.172957548e-08
1.181463969e-08
1.190860053e-08
1.201242656e-08
1.212700352e-08
1.225334823e-08
1.239253282e-08
1.254574923e-08
1.271431604e-08
1.289967462e-08
1.310339152e-08
1.332718059e-08
1.357288818e-08
1.384248266e-08
1.413804304e-08
1.446171785e-08
1.481565974e-08
1.520191026e-08
1.56222206e-08
1.607777041e-08
1.656872348e-08
1.709351853e-08
1.764781174e-08
1.822278463e-08
1.880236369e-08
1.935863757e-08
1.98433002e-08
2.017260916e-08
2.018654425e-08
1.958842062e-08
1.758013112e-08
1.290597416e-08
-1.162629126e-09
1.112436596e-08
1.112667891e-08
1.113242561e-08
1.114172482e-08
1.115433798e-08
1.117025457e-08
1.11896773e-08
1.12128498e-08
1.124000372e-08
1.12713904e-08
1.130730754e-08
1.134810125e-08
1.139416203e-08
1.144592605e-08
1.150388039e-08
1.156856859e-08
1.164059551e-08
1.172063051e-08
1.180940899e-08
1.190773715e-08
1.2016556e-08
1.21368996e-08
1.226991185e-08
1.241685469e-08
1.257914365e-08
1.275836072e-08
1.295625706e-08
1.317479346e-08
1.341617481e-08
1.368285667e-08
1.397755239e-08
1.430327714e-08
1.466337973e-08
1.506151737e-08