/*--------------------------------*- C++ -*----------------------------------*\
| =========                 |                                                 |
| \\      /  F ield         | foam-extend: Open Source CFD                    |
|  \\    /   O peration     | Version:     4.1                                |
|   \\  /    A nd           | Web:         http://www.foam-extend.org         |
|    \\/     M anipulation  |                                                 |
\*---------------------------------------------------------------------------*/
FoamFile
{
    version     2.0;
    format      ascii;
    class       surfaceScalarField;
    location    "90000";
    object      phi;
}
// * * * * * * * * * * * * * * * * * * * * * * * * * * * * * * * * * * * * * //

dimensions      [0 3 -1 0 0 0 0];

internalField   nonuniform List<scalar> 
31542
(
1.062488508e-07
3.081149156e-09
1.006026178e-07
5.646234022e-09
9.407662777e-08
6.525990148e-09
8.72633206e-08
6.813306603e-09
8.044452112e-08
6.818798545e-09
7.388026801e-08
6.564252122e-09
6.774539725e-08
6.134870005e-09
6.213585228e-08
5.609544551e-09
5.709793516e-08
5.037917031e-09
5.264281608e-08
4.455119213e-09
4.875677198e-08
3.886044243e-09
4.540763973e-08
3.349132219e-09
4.255101923e-08
2.856620171e-09
4.013616493e-08
2.41485361e-09
3.811038075e-08
2.025783173e-09
3.642199905e-08
1.688380505e-09
3.502234564e-08
1.399652203e-09
3.38669448e-08
1.155399807e-09
3.291613029e-08
9.50813787e-10
3.213522278e-08
7.809071509e-10
3.149441468e-08
6.408080125e-10
3.09684675e-08
5.259472159e-10
3.053629701e-08
4.321704639e-10
3.018050522e-08
3.557915428e-10
2.98868713e-08
2.936333823e-10
2.964386649e-08
2.430040547e-10
2.944221174e-08
2.016539233e-10
2.927447667e-08
1.677343323e-10
2.913472375e-08
1.397524008e-10
2.901820031e-08
1.165231831e-10
2.892107675e-08
9.712351883e-11
2.88402253e-08
8.085149357e-11
2.877303185e-08
6.719342069e-11
2.871732814e-08
5.570345221e-11
2.86712472e-08
4.608035135e-11
2.863308481e-08
3.816144353e-11
2.860124709e-08
3.183650303e-11
2.857420588e-08
2.703988576e-11
2.855046825e-08
2.37364142e-11
2.852856551e-08
2.190179629e-11
2.850707343e-08
2.149148684e-11
2.848458006e-08
2.249306244e-11
2.845955533e-08
2.502453258e-11
2.843049204e-08
2.906301378e-11
2.839590364e-08
3.458792098e-11
2.835432312e-08
4.15798402e-11
2.830430762e-08
5.001476432e-11
2.824444666e-08
5.986031234e-11
2.817337458e-08
7.107162937e-11
8.358912796e-11
2.808978515e-08
1.113832806e-07
1.027867253e-09
1.13992802e-07
3.036712219e-09
1.160758e-07
4.44299272e-09
1.17441089e-07
5.448018572e-09
1.180462248e-07
6.213663772e-09
1.178856436e-07
6.724834056e-09
1.170524266e-07
6.968087297e-09
1.156747881e-07
6.987182865e-09
1.138796081e-07
6.833096829e-09
1.117856998e-07
6.549027339e-09
1.094990865e-07
6.17265792e-09
1.071097657e-07
5.738454038e-09
1.046905582e-07
5.275829172e-09
1.022982643e-07
4.807149286e-09
9.997519633e-08
4.348852903e-09
9.775124447e-08
3.912333844e-09
9.564603213e-08
3.504865588e-09
9.367099959e-08
3.130432979e-09
9.183131061e-08
2.790503139e-09
9.012749217e-08
2.484725923e-09
8.855677481e-08
2.21152584e-09
8.711414835e-08
1.968574372e-09
8.579317161e-08
1.753148159e-09
8.458664283e-08
1.562321467e-09
8.348698766e-08
1.393289791e-09
8.24865574e-08
1.243435534e-09
8.157784119e-08
1.110371238e-09
8.075359822e-08
9.919782541e-10
8.000693657e-08
8.864148396e-10
7.933135212e-08
7.921083028e-10
7.872073887e-08
7.077373671e-10
7.816938302e-08
6.32207922e-10
7.767195368e-08
5.646233124e-10
7.722340725e-08
5.042503643e-10
7.681897351e-08
4.505144351e-10
7.645415878e-08
4.029763587e-10
7.612469864e-08
3.612967004e-10
7.582652485e-08
3.252137127e-10
7.555573461e-08
2.945267766e-10
7.530855402e-08
2.690826199e-10
7.508127848e-08
2.487672865e-10
7.487026777e-08
2.335039119e-10
7.467204879e-08
2.232433677e-10
7.448319324e-08
2.179180814e-10
7.430032066e-08
2.174597928e-10
7.412009952e-08
2.218002071e-10
7.393925152e-08
2.308621307e-10
7.37545566e-08
2.445548377e-10
7.356285965e-08
2.62768416e-10
2.853692199e-10
7.33610795e-08
1.096474436e-07
7.104238334e-10
1.107345761e-07
1.949578887e-09
1.12196762e-07
2.980805995e-09
1.138544332e-07
3.790346607e-09
1.156176967e-07
4.450399898e-09
1.173575085e-07
4.985022118e-09
1.189470983e-07
5.378497609e-09
1.20304565e-07
5.62971635e-09
1.213842573e-07
5.753404643e-09
1.221671141e-07
5.76617036e-09
1.226556511e-07
5.684120542e-09
1.228693192e-07
5.524785256e-09
1.228385851e-07
5.306562309e-09
1.225989559e-07
5.046777458e-09
1.221871728e-07
4.760635099e-09
1.21638652e-07
4.460853825e-09
1.209859346e-07
4.157582513e-09
1.202578377e-07
3.858529697e-09
1.1947914e-07
3.569200841e-09
1.186706297e-07
3.293236323e-09
1.178493721e-07
3.032783375e-09
1.170290974e-07
2.78884884e-09
1.162206376e-07
2.561607533e-09
1.154322981e-07
2.350660284e-09
1.146703193e-07
2.155267767e-09
1.139392518e-07
1.974502372e-09
1.13242267e-07
1.807355555e-09
1.125814247e-07
1.652820184e-09
1.119578926e-07
1.50994667e-09
1.113721238e-07
1.377876777e-09
1.108239999e-07
1.2558609e-09
1.103129435e-07
1.143263586e-09
1.098380048e-07
1.039561052e-09
1.093979206e-07
9.443332874e-10
1.089911771e-07
8.572564069e-10
1.086160588e-07
7.78093184e-10
1.082706751e-07
7.066791344e-10
1.0795298e-07
6.429077962e-10
1.076607877e-07
5.867183663e-10
1.073917841e-07
5.380858639e-10
1.071435388e-07
4.970122748e-10
1.069135255e-07
4.635168845e-10
1.066991383e-07
4.376301967e-10
1.064976763e-07
4.193796747e-10
1.063063555e-07
4.087801884e-10
1.061223239e-07
4.058314128e-10
1.059426772e-07
4.105084425e-10
1.057644663e-07
4.227654031e-10
1.055847082e-07
4.425261405e-10
4.696787082e-10
1.054003983e-07
1.095657436e-07
4.746809487e-10
1.100920716e-07
1.423252057e-09
1.108111043e-07
2.261773892e-09
1.116502141e-07
2.951236992e-09
1.125971936e-07
3.50342038e-09
1.136425009e-07
3.939714647e-09
1.147536773e-07
4.267321051e-09
1.15891525e-07
4.491868787e-09
1.170196571e-07
4.625272918e-09
1.181048494e-07
4.680978789e-09
1.19118331e-07
4.670639766e-09
1.200382555e-07
4.60486158e-09
1.208507337e-07
4.494084762e-09
1.215491697e-07
4.348341734e-09
1.221331046e-07
4.17670034e-09
1.226068932e-07
3.987065176e-09
1.229783232e-07
3.786152418e-09
1.23257349e-07
3.579504032e-09
1.234550238e-07
3.37152627e-09
1.235826817e-07
3.165579008e-09
1.236513569e-07
2.964108748e-09
1.236714062e-07
2.768800215e-09
1.236522859e-07
2.580728346e-09
1.236024463e-07
2.400500172e-09
1.235293304e-07
2.228383687e-09
1.234394148e-07
2.06441792e-09
1.233382719e-07
1.90849826e-09
1.232306492e-07
1.760442598e-09
1.231205538e-07
1.620041803e-09
1.230113343e-07
1.487096018e-09
1.229057563e-07
1.361438505e-09
1.228060695e-07
1.242950111e-09
1.227140639e-07
1.131566216e-09
1.226311191e-07
1.027277518e-09
1.225582461e-07
9.301289452e-10
1.224961225e-07
8.402162944e-10
1.224451219e-07
7.576792956e-10
1.224053366e-07
6.826927787e-10
1.223765973e-07
6.15457454e-10
1.223584901e-07
5.561928181e-10
1.223503711e-07
5.051310737e-10
1.223513811e-07
4.625068131e-10
1.223604598e-07
4.285515389e-10
1.223763567e-07
4.034828771e-10
1.223976423e-07
3.874946791e-10
1.224227211e-07
3.807526924e-10
1.224498415e-07
3.833880431e-10
1.22477112e-07
3.954948078e-10
1.225025147e-07
4.171232165e-10
4.482737244e-10
1.225239195e-07
1.094411064e-07
3.635744051e-10
1.097658934e-07
1.098465647e-09
1.102546193e-07
1.773048583e-09
1.108539424e-07
2.351914451e-09
1.115267583e-07
2.830604824e-09
1.122499706e-07
3.21650242e-09
1.130027143e-07
3.514577243e-09
1.137663569e-07
3.728226017e-09
1.145273297e-07
3.864299902e-09
1.152756906e-07
3.932617634e-09
1.160030186e-07
3.943311614e-09
1.167020127e-07
3.905867426e-09
1.173668451e-07
3.829252319e-09
1.179933452e-07
3.721841633e-09
1.185789342e-07
3.591111393e-09
1.191225177e-07
3.443481841e-09
1.196243348e-07
3.284335467e-09
1.200857494e-07
3.118089608e-09
1.205090007e-07
2.948275099e-09
1.20896952e-07
2.777627802e-09
1.21252863e-07
2.608197727e-09
1.215801974e-07
2.441465721e-09
1.21882469e-07
2.278456634e-09
1.22163126e-07
2.119842973e-09
1.224254717e-07
1.966037877e-09
1.226726135e-07
1.817275943e-09
1.229074332e-07
1.673678256e-09
1.231325722e-07
1.535303112e-09
1.23350429e-07
1.402184249e-09
1.235631634e-07
1.274360814e-09
1.237727031e-07
1.151897714e-09
1.239807536e-07
1.034898574e-09
1.24188806e-07
9.235128116e-10
1.243981445e-07
8.179381262e-10
1.246098532e-07
7.18419628e-10
1.248248222e-07
6.252469634e-10
1.250437527e-07
5.387484566e-10
1.252671617e-07
4.592834769e-10
1.25495385e-07
3.872339001e-10
1.257285674e-07
3.230100804e-10
1.259666778e-07
2.67020495e-10
1.262095098e-07
2.196747775e-10
1.264566806e-07
1.813809968e-10
1.26707638e-07
1.525257792e-10
1.269616648e-07
1.334681738e-10
1.272178833e-07
1.245343579e-10
1.274752602e-07
1.260109958e-10
1.277326158e-07
1.381388842e-10
1.279886321e-07
1.611065938e-10
1.950445577e-10
1.282418611e-07
1.094057154e-07
2.878593522e-10
1.096378332e-07
8.663480796e-10
1.100012395e-07
1.409642598e-09
1.104604531e-07
1.892701015e-09
1.109856171e-07
2.305441028e-09
1.115547327e-07
2.647386967e-09
1.121493232e-07
2.919986985e-09
1.127527258e-07
3.124823765e-09
1.133515574e-07
3.265468483e-09
1.139362739e-07
3.347901237e-09
1.145003758e-07
3.37920976e-09
1.150396677e-07
3.366575381e-09
1.155518978e-07
3.317021984e-09
1.160364262e-07
3.237313138e-09
1.164938094e-07
3.133728211e-09
1.16925431e-07
3.01186046e-09
1.173332305e-07
2.87653639e-09
1.177195014e-07
2.731819183e-09
1.180867302e-07
2.581046659e-09
1.184374691e-07
2.426889177e-09
1.187742404e-07
2.271426532e-09
1.190994695e-07
2.116236627e-09
1.194154398e-07
1.962486211e-09
1.197242656e-07
1.811017036e-09
1.20027879e-07
1.662424345e-09
1.203280289e-07
1.517125888e-09
1.206262871e-07
1.375419851e-09
1.209240582e-07
1.237531778e-09
1.212225902e-07
1.103651816e-09
1.215229869e-07
9.739636123e-10
1.21826218e-07
8.486658557e-10
1.221331289e-07
7.279869609e-10
1.224444477e-07
6.12193338e-10
1.227607902e-07
5.015951004e-10
1.230826609e-07
3.965485872e-10
1.234104547e-07
2.974529704e-10
1.237444592e-07
2.047437739e-10
1.240848512e-07
1.188911048e-10
1.244317082e-07
4.037659083e-11
1.247849225e-07
-3.020451822e-11
1.251443021e-07
-9.235928617e-11
1.255095809e-07
-1.456039827e-10
1.258803682e-07
-1.894058987e-10
1.262561581e-07
-2.232637488e-10
1.266363263e-07
-2.466997642e-10
1.270201311e-07
-2.592703612e-10
1.274067172e-07
-2.605752743e-10
1.27795121e-07
-2.502652564e-10
1.281842762e-07
-2.280489342e-10
-1.936976099e-10
1.285730181e-07
1.09386858e-07
2.310018948e-10
1.095576344e-07
6.955720869e-10
1.098294197e-07
1.137857333e-09
1.101819343e-07
1.540186421e-09
1.105952352e-07
1.892139911e-09
1.110525482e-07
2.190073816e-09
1.115391412e-07
2.433393819e-09
1.120413322e-07
2.622632721e-09
1.125471172e-07
2.759683463e-09
1.13046932e-07
2.848086287e-09
1.135336482e-07
2.892493389e-09
1.140022383e-07
2.897985128e-09
1.144495273e-07
2.869732757e-09
1.148739838e-07
2.812856545e-09
1.152754438e-07
2.732268236e-09
1.156547995e-07
2.632504911e-09
1.160137123e-07
2.517623776e-09
1.163543678e-07
2.39116391e-09
1.166792682e-07
2.256146291e-09
1.169910624e-07
2.115094965e-09
1.172924133e-07
1.97007563e-09
1.175859018e-07
1.822748057e-09
1.17873962e-07
1.674426008e-09
1.181588403e-07
1.526138645e-09
1.18442575e-07
1.3786896e-09
1.187269895e-07
1.232711366e-09
1.190136959e-07
1.08871338e-09
1.193041046e-07
9.471229412e-10
1.195994365e-07
8.083195981e-10
1.199007375e-07
6.726622058e-10
1.202088927e-07
5.405101656e-10
1.20524638e-07
4.122411407e-10
1.208485709e-07
2.882599901e-10
1.211811629e-07
1.69002913e-10
1.215227733e-07
5.49380429e-11
1.218736438e-07
-5.341772558e-11
1.222338966e-07
-1.555091897e-10
1.226035319e-07
-2.507445463e-10
1.229824232e-07
-3.385152105e-10
1.233704009e-07
-4.181826075e-10
1.237671493e-07
-4.891079137e-10
1.241721957e-07
-5.506503454e-10
1.245849604e-07
-6.021704107e-10
1.250047479e-07
-6.430510585e-10
1.254307535e-07
-6.727053621e-10
1.25862068e-07
-6.905849175e-10
1.262976822e-07
-6.961896953e-10
1.267364941e-07
-6.890774356e-10
1.271773168e-07
-6.688719836e-10
-6.352708203e-10
1.276188895e-07
1.093730417e-07
1.879604211e-10
1.095025919e-07
5.660219267e-10
1.097116515e-07
9.287976238e-10
1.099882697e-07
1.263568112e-09
1.103188027e-07
1.56160681e-09
1.106903449e-07
1.818531574e-09
1.110911577e-07
2.032580893e-09
1.115104651e-07
2.203325248e-09
1.119386648e-07
2.33148358e-09
1.123677358e-07
2.419014873e-09
1.127913562e-07
2.468872687e-09
1.132047678e-07
2.484573154e-09
1.13604621e-07
2.469879375e-09
1.139888481e-07
2.428629337e-09
1.143565137e-07
2.364602819e-09
1.147076262e-07
2.281392692e-09
1.150429426e-07
2.182307546e-09
1.153637873e-07
2.07031922e-09
1.156718898e-07
1.948043736e-09
1.159692421e-07
1.817742516e-09
1.162579789e-07
1.681338687e-09
1.165402809e-07
1.540445965e-09
1.168183008e-07
1.396406221e-09
1.170941083e-07
1.250331241e-09
1.173696529e-07
1.103145203e-09
1.17646739e-07
9.556255641e-10
1.179270121e-07
8.084405378e-10
1.182119533e-07
6.621819897e-10
1.185028787e-07
5.173942715e-10
1.188009415e-07
3.745993018e-10
1.191071333e-07
2.343181283e-10
1.194223048e-07
9.706940048e-11
1.197471626e-07
-3.659799571e-11
1.200822631e-07
-1.660976344e-10
1.204280099e-07
-2.908089375e-10
1.207846672e-07
-4.100751988e-10
1.211523716e-07
-5.232139257e-10
1.215311361e-07
-6.29509476e-10
1.219208384e-07
-7.282180754e-10
1.223212318e-07
-8.185764043e-10
1.227319328e-07
-8.998092505e-10
1.231524244e-07
-9.71142119e-10
1.235820632e-07
-1.031809277e-09
1.240200777e-07
-1.081065571e-09
1.244655718e-07
-1.118199433e-09
1.249175311e-07
-1.142544227e-09
1.253748307e-07
-1.153489433e-09
1.258362446e-07
-1.150491632e-09
1.263004569e-07
-1.133084586e-09
-1.100888208e-09
1.267660738e-07
1.093637021e-07
1.542582919e-10
1.094652665e-07
4.644569296e-10
1.096303749e-07
7.636887031e-10
1.09851346e-07
1.042596716e-09
1.101187462e-07
1.294206393e-09
1.104230031e-07
1.514274546e-09
1.10755096e-07
1.700487954e-09
1.111066582e-07
1.851762949e-09
1.114701004e-07
1.968041131e-09
1.118388513e-07
2.050263618e-09
1.122075114e-07
2.100212186e-09
1.125718492e-07
2.120234986e-09
1.129287257e-07
2.113002592e-09
1.132760098e-07
2.081345219e-09
1.136124789e-07
2.02813369e-09
1.13937697e-07
1.956174728e-09
1.142518787e-07
1.8681258e-09
1.145557587e-07
1.766439237e-09
1.148504694e-07
1.65333292e-09
1.151374322e-07
1.530779628e-09
1.154182607e-07
1.40051006e-09
1.156946797e-07
1.26402701e-09
1.15968458e-07
1.122628056e-09
1.16241356e-07
9.774334402e-10
1.165150855e-07
8.294161031e-10
1.167912787e-07
6.794327701e-10
1.170714679e-07
5.282516876e-10
1.173570712e-07
3.76579151e-10
1.176493805e-07
2.250852086e-10
1.179495726e-07
7.440724652e-11
1.182586693e-07
-7.477852912e-11
1.185775669e-07
-2.21828293e-10
1.189070104e-07
-3.660415887e-10
1.192476122e-07
-5.066995878e-10
1.19599854e-07
-6.430509919e-10
1.199640811e-07
-7.743026322e-10
1.20340491e-07
-8.996242758e-10
1.207291346e-07
-1.018153648e-09
1.211299168e-07
-1.129000742e-09
1.21542594e-07
-1.231254101e-09
1.219667737e-07
-1.323989318e-09
1.224019127e-07
-1.406281458e-09
1.228473195e-07
-1.477216238e-09
1.233021565e-07
-1.535902515e-09
1.237654439e-07
-1.58148669e-09
1.242360667e-07
-1.613166747e-09
1.247127829e-07
-1.630205632e-09
1.251942352e-07
-1.631944139e-09
1.256789632e-07
-1.617812873e-09
-1.587342835e-09
1.261654175e-07
1.093570184e-07
1.272396457e-10
1.094383462e-07
3.83128489e-10
1.095711094e-07
6.309248706e-10
1.097501663e-07
8.63539467e-10
1.0996898e-07
1.075392397e-09
1.102205739e-07
1.262680602e-09
1.104980874e-07
1.422974457e-09
1.107949948e-07
1.554855373e-09
1.111052581e-07
1.657777692e-09
1.114235122e-07
1.732009204e-09
1.117452121e-07
1.778511934e-09
1.120666822e-07
1.798764657e-09
1.123850954e-07
1.794589351e-09
1.126984241e-07
1.768016426e-09
1.130053769e-07
1.721180969e-09
1.133053164e-07
1.656235156e-09
1.135981665e-07
1.575275697e-09
1.138843147e-07
1.480290944e-09
1.141645199e-07
1.373127677e-09
1.144398259e-07
1.2554736e-09
1.147114842e-07
1.128851888e-09
1.149808857e-07
9.946256461e-10
1.152495038e-07
8.540101741e-10
1.155188463e-07
7.080912521e-10
1.157904178e-07
5.578450554e-10
1.160656868e-07
4.041640826e-10
1.163460636e-07
2.478753144e-10
1.166328898e-07
8.975318829e-11
1.169274103e-07
-6.943510968e-11
1.172307604e-07
-2.289427076e-10
1.17543982e-07
-3.880001159e-10
1.178679843e-07
-5.458306273e-10
1.182035655e-07
-7.016229863e-10
1.185513919e-07
-8.545263318e-10
1.189119902e-07
-1.003649661e-09
1.192857465e-07
-1.148059419e-09
1.196729014e-07
-1.286779541e-09
1.200735425e-07
-1.418795196e-09
1.204875994e-07
-1.54305802e-09
1.209148384e-07
-1.658493582e-09
1.213548603e-07
-1.764011585e-09
1.218070971e-07
-1.858518451e-09
1.222708119e-07
-1.940931019e-09
1.227451011e-07
-2.010191481e-09
1.232288984e-07
-2.065283666e-09
1.237209818e-07
-2.105249718e-09
1.242199827e-07
-2.129206356e-09
1.247243991e-07
-2.136360461e-09
1.252326096e-07
-2.126023602e-09
-2.097624871e-09
1.257428914e-07
1.093520097e-07
1.052294553e-10
1.094182137e-07
3.169237961e-10
1.095266245e-07
5.225135125e-10
1.096736882e-07
7.164754769e-10
1.098547791e-07
8.943014401e-10
1.100647731e-07
1.052686619e-09
1.102984524e-07
1.189295182e-09
1.10550737e-07
1.302570685e-09
1.108168478e-07
1.391666726e-09
1.110924587e-07
1.456398163e-09
1.113738163e-07
1.497154217e-09
1.116578027e-07
1.514778171e-09
1.119419466e-07
1.510445406e-09
1.122244045e-07
1.485558577e-09
1.125039243e-07
1.441661263e-09
1.127797944e-07
1.380365157e-09
1.130517807e-07
1.303289431e-09
1.133200578e-07
1.212013861e-09
1.135851395e-07
1.10804605e-09
1.138478122e-07
9.928010388e-10
1.141090732e-07
8.67591119e-10
1.143700745e-07
7.336245164e-10
1.146320743e-07
5.920105899e-10
1.148963961e-07
4.437696819e-10
1.151643939e-07
2.898475309e-10
1.154374062e-07
1.311519425e-10
1.157167689e-07
-3.148733156e-11
1.160037497e-07
-1.972276015e-10
1.162995662e-07
-3.652516285e-10
1.166053502e-07
-5.347267221e-10
1.169221538e-07
-7.048036939e-10
1.172509217e-07
-8.745987312e-10
1.175924868e-07
-1.043188368e-09
1.179475619e-07
-1.209601859e-09
1.183167291e-07
-1.372817305e-09
1.187004292e-07
-1.531759956e-09
1.19098952e-07
-1.685302681e-09
1.195124262e-07
-1.832269618e-09
1.199408105e-07
-1.97144251e-09
1.203838863e-07
-2.101569501e-09
1.208412511e-07
-2.221376562e-09
1.213123142e-07
-2.329581527e-09
1.217962938e-07
-2.424910287e-09
1.222922174e-07
-2.506114632e-09
1.227989256e-07
-2.571991437e-09
1.233150789e-07
-2.621402654e-09
1.238391681e-07
-2.653295352e-09
1.243695288e-07
-2.666720993e-09
1.249043585e-07
-2.66085328e-09
-2.635003804e-09
1.254417372e-07
1.093481695e-07
8.705943162e-11
1.09402792e-07
2.623006576e-10
1.094924439e-07
4.328611392e-10
1.096145886e-07
5.943305852e-10
1.097658794e-07
7.430106784e-10
1.099425212e-07
8.760448759e-10
1.101405526e-07
9.912638356e-10
1.10356039e-07
1.087084324e-09
1.10585219e-07
1.16248671e-09
1.108246297e-07
1.216987488e-09
1.110712067e-07
1.250577268e-09
1.113223478e-07
1.26363721e-09
1.115759405e-07
1.256852812e-09
1.118303638e-07
1.231135504e-09
1.120844712e-07
1.187554067e-09
1.12337561e-07
1.127275479e-09
1.125893356e-07
1.051515079e-09
1.128398531e-07
9.614965905e-10
1.130894773e-07
8.584221438e-10
1.133388269e-07
7.434516721e-10
1.135887275e-07
6.17690771e-10
1.138401664e-07
4.821857034e-10
1.140942475e-07
3.379296623e-10
1.143521544e-07
1.858627871e-10
1.146151873e-07
2.681451764e-11
1.148845257e-07
-1.381866735e-10
1.151614814e-07
-3.084433067e-10
1.154472943e-07
-4.830408328e-10
1.157431699e-07
-6.611273525e-10
1.160502584e-07
-8.418153849e-10
1.163696358e-07
-1.024181181e-09
1.167022927e-07
-1.207255851e-09
1.170491208e-07
-1.390016825e-09
1.174108987e-07
-1.571380203e-09
1.177882773e-07
-1.750196274e-09
1.181817654e-07
-1.92524831e-09
1.185917163e-07
-2.095253634e-09
1.19018314e-07
-2.258867331e-09
1.194615607e-07
-2.414689118e-09
1.199212646e-07
-2.561273322e-09
1.203970302e-07
-2.69714196e-09
1.2088825e-07
-2.820800937e-09
1.213940992e-07
-2.930759089e-09
1.219135345e-07
-3.025549525e-09
1.224452963e-07
-3.103752813e-09
1.229879152e-07
-3.16402135e-09
1.235397241e-07
-3.2051041e-09
1.240988739e-07
-3.225870693e-09
1.246633543e-07
-3.225333748e-09
-3.202668454e-09
1.252310189e-07
1.093451581e-07
7.190092029e-11
1.093907005e-07
2.167577076e-10
1.094655782e-07
3.579832308e-10
1.095679362e-07
4.919724119e-10
1.096953122e-07
6.156347546e-10
1.098448717e-07
7.264853733e-10
1.100136017e-07
8.225338874e-10
1.101984576e-07
9.022284274e-10
1.103964857e-07
9.644587536e-10
1.10604927e-07
1.008546316e-09
1.108213025e-07
1.034201982e-09
1.11043472e-07
1.041468027e-09
1.112696676e-07
1.030657574e-09
1.114985061e-07
1.002297245e-09
1.117289861e-07
9.570744427e-10
1.119604715e-07
8.957904288e-10
1.121926669e-07
8.193200878e-10
1.12425585e-07
7.285787591e-10
1.126595113e-07
6.244962005e-10
1.12894966e-07
5.079971659e-10
1.131326682e-07
3.799887441e-10
1.133735026e-07
2.413512937e-10
1.136184778e-07
9.29544461e-11
1.138687001e-07
-6.435979013e-11
1.141252972e-07
-2.297829992e-10
1.143895703e-07
-4.024603338e-10
1.146627133e-07
-5.81586839e-10
1.149459772e-07
-7.663051835e-10
1.152405809e-07
-9.557313104e-10
1.155477074e-07
-1.148942044e-09
1.15868487e-07
-1.344960913e-09
1.162039792e-07
-1.542748171e-09
1.165551544e-07
-1.741192299e-09
1.169228771e-07
-1.939103231e-09
1.173078884e-07
-2.135207767e-09
1.177107876e-07
-2.328147617e-09
1.181320142e-07
-2.516480179e-09
1.185718294e-07
-2.698682373e-09
1.190302987e-07
-2.873158005e-09
1.195072747e-07
-3.038248887e-09
1.20002383e-07
-3.192249765e-09
1.205150096e-07
-3.333427068e-09
1.210442922e-07
-3.460041326e-09
1.215891157e-07
-3.570372832e-09
1.22148113e-07
-3.662749942e-09
1.22719671e-07
-3.735579191e-09
1.233019431e-07
-3.787376112e-09
1.238928679e-07
-3.816795524e-09
1.244901938e-07
-3.822659861e-09
-3.803984186e-09
1.250915093e-07
1.093427463e-07
5.915433126e-11
1.0938102e-07
1.784835933e-10
1.094440302e-07
2.94972925e-10
1.095303945e-07
4.056079541e-10
1.096382741e-07
5.077550441e-10
1.097655324e-07
5.992270573e-10
1.099098678e-07
6.781983906e-10
1.100689241e-07
7.431721768e-10
1.102403873e-07
7.929956918e-10
1.104220719e-07
8.268620147e-10
1.106119909e-07
8.442833004e-10
1.108084086e-07
8.450507074e-10
1.110098741e-07
8.291924672e-10
1.112152392e-07
7.969324412e-10
1.114236636e-07
7.486504789e-10
1.116346084e-07
6.848460282e-10
1.118478226e-07
6.061063326e-10
1.12063322e-07
5.130796293e-10
1.122813652e-07
4.064532004e-10
1.125024242e-07
2.869382639e-10
1.127271559e-07
1.552569867e-10
1.129564356e-07
1.207148492e-11
1.131911209e-07
-1.417311305e-10
1.13432333e-07
-3.055722449e-10
1.136811997e-07
-4.786502973e-10
1.139389437e-07
-6.602049032e-10
1.142067989e-07
-8.494425543e-10
1.144860278e-07
-1.045534435e-09
1.14777895e-07
-1.247598721e-09
1.150836463e-07
-1.454693409e-09
1.1540449e-07
-1.665804695e-09
1.157415778e-07
-1.879836099e-09
1.16095985e-07
-2.095599621e-09
1.164686899e-07
-2.3118083e-09
1.168605526e-07
-2.527070559e-09
1.172722921e-07
-2.739887152e-09
1.177044632e-07
-2.948651199e-09
1.181574329e-07
-3.151651731e-09
1.186313567e-07
-3.347081266e-09
1.191261563e-07
-3.533047862e-09
1.19641499e-07
-3.707591882e-09
1.201767799e-07
-3.868707601e-09
1.207311084e-07
-4.014369607e-09
1.213032993e-07
-4.142563721e-09
1.21891871e-07
-4.251321702e-09
1.224950506e-07
-4.338758709e-09
1.231107867e-07
-4.403112112e-09
1.237367712e-07
-4.442780027e-09
1.243704689e-07
-4.456357739e-09
-4.442670087e-09
1.250091545e-07
1.09340777e-07
4.837705835e-11
1.093731186e-07
1.461417488e-10
1.094264159e-07
2.416754439e-10
1.09499622e-07
3.324017153e-10
1.095913458e-07
4.160310152e-10
1.096999629e-07
4.90609802e-10
1.098237084e-07
5.544527521e-10
1.099607583e-07
6.061223384e-10
1.101093049e-07
6.44449246e-10
1.102676263e-07
6.685408049e-10
1.104341445e-07
6.777653529e-10
1.106074702e-07
6.717252469e-10
1.107864351e-07
6.502278625e-10
1.109701115e-07
6.132562976e-10
1.111578223e-07
5.60940053e-10
1.113491412e-07
4.935274474e-10
1.115438869e-07
4.113608776e-10
1.117421109e-07
3.148556649e-10
1.119440828e-07
2.044813579e-10
1.121502717e-07
8.074922524e-11
1.123613213e-07
-5.579274297e-11
1.125779814e-07
-2.04588831e-10
1.128012718e-07
-3.650218677e-10
1.130321979e-07
-5.364987389e-10
1.132719101e-07
-7.183629402e-10
1.135216287e-07
-9.099238812e-10
1.137826315e-07
-1.110445644e-09
1.140562333e-07
-1.319136333e-09
1.143437687e-07
-1.535134108e-09
1.146465721e-07
-1.757496839e-09
1.149659582e-07
-1.9851908e-09
1.153032013e-07
-2.217079171e-09
1.156595131e-07
-2.45191158e-09
1.160360196e-07
-2.688314891e-09
1.164337347e-07
-2.924785808e-09
1.168535336e-07
-3.159686096e-09
1.172961236e-07
-3.391241096e-09
1.177620144e-07
-3.617542219e-09
1.182514878e-07
-3.836554115e-09
1.187645677e-07
-4.046127177e-09
1.193009922e-07
-4.244015917e-09
1.198601885e-07
-4.427903609e-09
1.204412523e-07
-4.595433343e-09
1.210429339e-07
-4.744245242e-09
1.216636313e-07
-4.872019105e-09
1.223013939e-07
-4.976521216e-09
1.229539355e-07
-5.055653593e-09
1.23618659e-07
-5.107503622e-09
1.242926927e-07
-5.130391572e-09
-5.122913168e-09
1.249729356e-07
1.093391391e-07
3.923779512e-11
1.093665485e-07
1.187321659e-10
1.094117507e-07
1.964730855e-10
1.09473941e-07
2.702110975e-10
1.095520559e-07
3.379159175e-10
1.096448509e-07
3.978145562e-10
1.097509678e-07
4.483356505e-10
1.098689942e-07
4.88095889e-10
1.099975219e-07
5.159216238e-10
1.10135202e-07
5.308607233e-10
1.10280793e-07
5.321744087e-10
1.104331987e-07
5.193196293e-10
1.105914972e-07
4.919294037e-10
1.107549612e-07
4.497922802e-10
1.109230702e-07
3.928312082e-10
1.110955147e-07
3.210830236e-10
1.112721955e-07
2.346799893e-10
1.114532183e-07
1.338327684e-10
1.116388997e-07
1.879981033e-11
1.118296935e-07
-1.100447902e-10
1.120262712e-07
-2.523705997e-10
1.122294306e-07
-4.077484071e-10
1.124401319e-07
-5.757234056e-10
1.126594332e-07
-7.558002568e-10
1.128885062e-07
-9.474360787e-10
1.131286141e-07
-1.150031811e-09
1.133810939e-07
-1.362925373e-09
1.136473381e-07
-1.585380345e-09
1.139287778e-07
-1.8165738e-09
1.142268651e-07
-2.055584062e-09
1.14543052e-07
-2.301377765e-09
1.148787694e-07
-2.552796609e-09
1.152354023e-07
-2.808544558e-09
1.156142632e-07
-3.067176022e-09
1.160165628e-07
-3.327085709e-09
1.164433776e-07
-3.586501017e-09
1.168956145e-07
-3.843477916e-09
1.173739739e-07
-4.095901263e-09
1.178789108e-07
-4.341490521e-09
1.18410596e-07
-4.577811894e-09
1.189688783e-07
-4.802297858e-09
1.195532497e-07
-5.012274807e-09
1.201628158e-07
-5.204999228e-09
1.20796273e-07
-5.377702304e-09
1.214518963e-07
-5.527642275e-09
1.221275384e-07
-5.652163192e-09
1.228206427e-07
-5.748757967e-09
1.23528272e-07
-5.815132929e-09
1.242471507e-07
-5.84927045e-09
-5.849485701e-09
1.24973723e-07
1.093377519e-07
3.148574789e-11
1.093609861e-07
9.549789148e-11
1.093993211e-07
1.581380214e-10
1.094521301e-07
2.174018007e-10
1.095185918e-07
2.714540449e-10
1.095977466e-07
3.186595393e-10
1.096885457e-07
3.575363476e-10
1.097898954e-07
3.867461227e-10
1.099007018e-07
4.051150439e-10
1.100199153e-07
4.116470083e-10
1.101465691e-07
4.055203184e-10
1.102798119e-07
3.860765755e-10
1.104189333e-07
3.528077651e-10
1.105633832e-07
3.053421933e-10
1.107127848e-07
2.434294094e-10
1.108669425e-07
1.669251643e-10
1.110258456e-07
7.577669202e-11
1.111896651e-07
-2.998698777e-11
1.11358734e-07
-1.502693302e-10
1.11533596e-07
-2.849069747e-10
1.11714921e-07
-4.336957667e-10
1.119035437e-07
-5.963711593e-10
1.121004393e-07
-7.726191035e-10
1.123067123e-07
-9.620731271e-10
1.125235842e-07
-1.164307724e-09
1.127523818e-07
-1.378829049e-09
1.129945227e-07
-1.605065925e-09
1.132515009e-07
-1.842358409e-09
1.135248719e-07
-2.089944717e-09
1.138162347e-07
-2.346946902e-09
1.141272123e-07
-2.612355501e-09
1.144594291e-07
-2.885013548e-09
1.148144848e-07
-3.163600503e-09
1.151939252e-07
-3.446616702e-09
1.155992084e-07
-3.732369142e-09
1.16031667e-07
-4.01895966e-09
1.164924658e-07
-4.304276658e-09
1.169825565e-07
-4.58599164e-09
1.175026282e-07
-4.861561967e-09
1.18053058e-07
-5.128241303e-09
1.186338597e-07
-5.38309929e-09
1.19244637e-07
-5.623051721e-09
1.198845402e-07
-5.844902006e-09
1.205522324e-07
-6.0453942e-09
1.212458673e-07
-6.221277155e-09
1.219630824e-07
-6.369378485e-09
1.227010101e-07
-6.486685834e-09
1.234563087e-07
-6.570431643e-09
1.242252148e-07
-6.618176615e-09
-6.627886339e-09
1.250036151e-07
1.093365564e-07
2.49292441e-11
1.093561941e-07
7.586030839e-11
1.093886024e-07
1.257297272e-10
1.094332869e-07
1.727172342e-10
1.094896069e-07
2.151339777e-10
1.095568178e-07
2.51448479e-10
1.096341072e-07
2.802468149e-10
1.097206279e-07
3.002251782e-10
1.098155333e-07
3.102092993e-10
1.099180121e-07
3.091677616e-10
1.100273202e-07
2.962117484e-10
1.101428079e-07
2.705883253e-10
1.10263943e-07
2.316721711e-10
1.103903282e-07
1.789565318e-10
1.105217148e-07
1.120424988e-10
1.106580122e-07
3.062753968e-11
1.107992916e-07
-6.550299932e-11
1.109457904e-07
-1.764859044e-10
1.110979093e-07
-3.023884202e-10
1.112562162e-07
-4.432139782e-10
1.114214289e-07
-5.989085122e-10
1.1159442e-07
-7.693622596e-10
1.117762087e-07
-9.544076119e-10
1.11967952e-07
-1.153816135e-09
1.121709365e-07
-1.367291738e-09
1.123865695e-07
-1.594461629e-09
1.126163697e-07
-1.834865752e-09
1.128619553e-07
-2.087943937e-09
1.131250315e-07
-2.353020924e-09
1.13407374e-07
-2.629289594e-09
1.137108108e-07
-2.915792588e-09
1.140371996e-07
-3.211402605e-09
1.143884008e-07
-3.514801906e-09
1.147662456e-07
-3.824461697e-09
1.151724987e-07
-4.138622319e-09
1.156088146e-07
-4.45527541e-09
1.160766875e-07
-4.772149431e-09
1.165773963e-07
-5.086700247e-09
1.171119432e-07
-5.396108686e-09
1.176809894e-07
-5.697287236e-09
1.182847886e-07
-5.986898047e-09
1.189231216e-07
-6.261384288e-09
1.195952364e-07
-6.517016494e-09
1.202997972e-07
-6.749954882e-09
1.210348476e-07
-6.956327728e-09
1.217977934e-07
-7.132324588e-09
1.225854087e-07
-7.274301387e-09
1.233938692e-07
-7.37889255e-09
1.24218816e-07
-7.443123609e-09
-7.464516386e-09
1.250554458e-07
1.093355088e-07
1.942050825e-11
1.093519962e-07
5.937319551e-11
1.093792044e-07
9.852171256e-11
1.094167377e-07
1.351840003e-10
1.094640914e-07
1.677803764e-10
1.095206835e-07
1.948562849e-10
1.095858823e-07