/*--------------------------------*- C++ -*----------------------------------*\
| =========                 |                                                 |
| \\      /  F ield         | foam-extend: Open Source CFD                    |
|  \\    /   O peration     | Version:     4.1                                |
|   \\  /    A nd           | Web:         http://www.foam-extend.org         |
|    \\/     M anipulation  |                                                 |
\*---------------------------------------------------------------------------*/
FoamFile
{
    version     2.0;
    format      ascii;
    class       volVectorField;
    location    "90000";
    object      U;
}
// * * * * * * * * * * * * * * * * * * * * * * * * * * * * * * * * * * * * * //

dimensions      [0 1 -1 0 0 0 0];

internalField   nonuniform List<vector> 
15920
(
(0.0002132403001 5.125256715e-06 0)
(0.0002058392285 1.132169605e-05 0)
(0.0001956991618 1.374707309e-05 0)
(0.0001821318549 1.423540247e-05 0)
(0.0001676766643 1.379167262e-05 0)
(0.0001539889382 1.272324163e-05 0)
(0.000141334888 1.121485785e-05 0)
(0.0001296357562 9.491041784e-06 0)
(0.0001189683136 7.750717896e-06 0)
(0.0001094557068 6.121440792e-06 0)
(0.0001011255185 4.672233787e-06 0)
(9.39179639e-05 3.435405618e-06 0)
(8.774117415e-05 2.417608713e-06 0)
(8.249663726e-05 1.60666924e-06 0)
(7.808180349e-05 9.792677543e-07 0)
(7.439207539e-05 5.076143314e-07 0)
(7.132614826e-05 1.63679777e-07 0)
(6.879040509e-05 -7.849217258e-08 0)
(6.670078467e-05 -2.416143019e-07 0)
(6.498319014e-05 -3.447427883e-07 0)
(6.357337979e-05 -4.0337787e-07 0)
(6.241655159e-05 -4.298405069e-07 0)
(6.146663405e-05 -4.337457735e-07 0)
(6.068539848e-05 -4.224932924e-07 0)
(6.00414605e-05 -4.016457143e-07 0)
(5.950927976e-05 -3.752754763e-07 0)
(5.906823105e-05 -3.462902482e-07 0)
(5.870176255e-05 -3.167055117e-07 0)
(5.839664214e-05 -2.87860508e-07 0)
(5.814229545e-05 -2.605867714e-07 0)
(5.793023758e-05 -2.353383102e-07 0)
(5.775359279e-05 -2.122893133e-07 0)
(5.760667712e-05 -1.914004371e-07 0)
(5.748475697e-05 -1.724417977e-07 0)
(5.738384527e-05 -1.551197754e-07 0)
(5.730040282e-05 -1.391731287e-07 0)
(5.723116054e-05 -1.243624389e-07 0)
(5.717301236e-05 -1.104418497e-07 0)
(5.712294518e-05 -9.715072191e-08 0)
(5.707800259e-05 -8.421980762e-08 0)
(5.703531031e-05 -7.139809004e-08 0)
(5.699203355e-05 -5.853624487e-08 0)
(5.694522295e-05 -4.560209149e-08 0)
(5.689184453e-05 -3.2471847e-08 0)
(5.682889324e-05 -1.899633011e-08 0)
(5.675341497e-05 -5.07535619e-09 0)
(5.666249723e-05 9.344491702e-09 0)
(5.655328149e-05 2.427996476e-08 0)
(5.642298562e-05 3.971326522e-08 0)
(5.626893121e-05 5.559448894e-08 0)
(0.0002201187562 5.655970999e-06 0)
(0.0002251685511 1.297497064e-05 0)
(0.0002303365869 1.666083164e-05 0)
(0.0002340073642 1.861955444e-05 0)
(0.0002359001874 1.975380918e-05 0)
(0.0002362397743 2.018588056e-05 0)
(0.0002352054181 1.996008344e-05 0)
(0.0002329584292 1.921853803e-05 0)
(0.0002297292923 1.811871429e-05 0)
(0.0002257816524 1.678311051e-05 0)
(0.0002213541694 1.530719762e-05 0)
(0.0002166424583 1.37717809e-05 0)
(0.0002118052338 1.224359249e-05 0)
(0.0002069705772 1.077328965e-05 0)
(0.0002022376144 9.395994859e-06 0)
(0.0001976782429 8.133599978e-06 0)
(0.0001933410567 6.997270593e-06 0)
(0.0001892561281 5.9897819e-06 0)
(0.0001854392774 5.107724411e-06 0)
(0.0001818955772 4.343493752e-06 0)
(0.0001786222615 3.686942983e-06 0)
(0.0001756111188 3.126666217e-06 0)
(0.0001728503521 2.650949752e-06 0)
(0.0001703260594 2.248453195e-06 0)
(0.0001680232735 1.908598445e-06 0)
(0.0001659266467 1.621796187e-06 0)
(0.0001640209301 1.3795766e-06 0)
(0.000162291307 1.174628905e-06 0)
(0.0001607236033 1.000765525e-06 0)
(0.0001593044007 8.528383753e-07 0)
(0.0001580210809 7.266310145e-07 0)
(0.0001568618239 6.187424438e-07 0)
(0.0001558155833 5.264717887e-07 0)
(0.0001548720063 4.477214817e-07 0)
(0.0001540213137 3.808697833e-07 0)
(0.000153254245 3.246624332e-07 0)
(0.0001525620414 2.781410976e-07 0)
(0.0001519363841 2.405897862e-07 0)
(0.0001513693175 2.114872519e-07 0)
(0.000150853183 1.904686914e-07 0)
(0.0001503805368 1.773025311e-07 0)
(0.00014994403 1.718334161e-07 0)
(0.0001495365085 1.738812548e-07 0)
(0.0001491510988 1.83287214e-07 0)
(0.0001487810232 1.999268725e-07 0)
(0.0001484195622 2.236797646e-07 0)
(0.0001480600978 2.544060279e-07 0)
(0.0001476961299 2.919349096e-07 0)
(0.0001473212809 3.360548374e-07 0)
(0.0001469293098 3.865050469e-07 0)
(0.0002187776722 1.483933449e-06 0)
(0.000220030814 4.440499853e-06 0)
(0.0002226026728 7.105009599e-06 0)
(0.0002259305442 9.492247296e-06 0)
(0.000229481993 1.162333416e-05 0)
(0.0002330238412 1.338105137e-05 0)
(0.0002363856825 1.466757732e-05 0)
(0.000239372643 1.547717151e-05 0)
(0.0002418344972 1.585418414e-05 0)
(0.0002437018123 1.585559629e-05 0)
(0.0002449665141 1.554434148e-05 0)
(0.0002456567131 1.498889847e-05 0)
(0.0002458241596 1.425764145e-05 0)
(0.0002455361223 1.341235306e-05 0)
(0.0002448666535 1.250470028e-05 0)
(0.0002438892862 1.157555517e-05 0)
(0.0002426726296 1.065567578e-05 0)
(0.0002412782564 9.766883503e-06 0)
(0.0002397598133 8.923494293e-06 0)
(0.0002381628279 8.133853781e-06 0)
(0.0002365250305 7.40179956e-06 0)
(0.0002348770323 6.7279328e-06 0)
(0.0002332431867 6.110659814e-06 0)
(0.000231642449 5.547022776e-06 0)
(0.0002300891874 5.033295367e-06 0)
(0.0002285940064 4.56542021e-06 0)
(0.0002271644718 4.139330871e-06 0)
(0.0002258056929 3.751166895e-06 0)
(0.0002245207972 3.39739955e-06 0)
(0.0002233113215 3.07489334e-06 0)
(0.0002221775318 2.780924549e-06 0)
(0.0002211186773 2.513171022e-06 0)
(0.0002201331881 2.269681584e-06 0)
(0.0002192188213 2.048825661e-06 0)
(0.0002183727757 1.849274668e-06 0)
(0.0002175917972 1.669979463e-06 0)
(0.0002168722608 1.51012437e-06 0)
(0.0002162102198 1.369077813e-06 0)
(0.0002156014367 1.246349872e-06 0)
(0.0002150414069 1.141557546e-06 0)
(0.0002145253813 1.054398179e-06 0)
(0.0002140483925 9.846437271e-07 0)
(0.0002136052985 9.321467616e-07 0)
(0.0002131907966 8.967590421e-07 0)
(0.0002127994039 8.783051575e-07 0)
(0.0002124254757 8.765880421e-07 0)
(0.0002120632467 8.91381916e-07 0)
(0.0002117068582 9.224152192e-07 0)
(0.0002113503742 9.693565823e-07 0)
(0.0002109878015 1.031804753e-06 0)
(0.0002187696906 1.505692799e-06 0)
(0.0002194900373 4.382381195e-06 0)
(0.0002207535753 6.824044438e-06 0)
(0.0002223768079 8.718041502e-06 0)
(0.0002242022997 1.015892916e-05 0)
(0.0002261979536 1.124989873e-05 0)
(0.0002283590891 1.203826661e-05 0)
(0.0002306291335 1.255610078e-05 0)
(0.0002329201794 1.283994007e-05 0)
(0.0002351525424 1.292418427e-05 0)
(0.0002372643987 1.283766513e-05 0)
(0.000239207393 1.260705074e-05 0)
(0.0002409460202 1.225909561e-05 0)
(0.0002424594913 1.181977089e-05 0)
(0.0002437412093 1.131301686e-05 0)
(0.00024479596 1.076017402e-05 0)
(0.0002456366905 1.017976378e-05 0)
(0.000246281752 9.587317688e-06 0)
(0.0002467526307 8.995313879e-06 0)
(0.0002470720953 8.413310812e-06 0)
(0.0002472627888 7.848249201e-06 0)
(0.0002473462738 7.304841007e-06 0)
(0.0002473424559 6.78598264e-06 0)
(0.000247269281 6.29314958e-06 0)
(0.0002471426395 5.826795498e-06 0)
(0.0002469764191 5.3866881e-06 0)
(0.0002467826285 4.972162832e-06 0)
(0.0002465715466 4.582316485e-06 0)
(0.0002463518851 4.216154517e-06 0)
(0.0002461309571 3.872698223e-06 0)
(0.0002459148375 3.551056908e-06 0)
(0.0002457085069 3.250471386e-06 0)
(0.0002455159758 2.970335693e-06 0)
(0.0002453403896 2.710203976e-06 0)
(0.0002451841177 2.469792301e-06 0)
(0.000245048831 2.248968481e-06 0)
(0.0002449355656 2.047729059e-06 0)
(0.0002448447755 1.866173826e-06 0)
(0.000244776374 1.704482903e-06 0)
(0.0002447297699 1.5629001e-06 0)
(0.0002447038984 1.441711489e-06 0)
(0.000244697249 1.341225411e-06 0)
(0.0002447078951 1.261753577e-06 0)
(0.0002447335205 1.203577179e-06 0)
(0.0002447714405 1.166931554e-06 0)
(0.0002448186239 1.152000394e-06 0)
(0.0002448717177 1.158904113e-06 0)
(0.0002449270729 1.187681267e-06 0)
(0.0002449807727 1.238272676e-06 0)
(0.0002450286619 1.310509769e-06 0)
(0.0002187106201 1.057793033e-06 0)
(0.0002191101797 3.078305562e-06 0)
(0.0002199119819 4.879590686e-06 0)
(0.0002210337097 6.402769734e-06 0)
(0.000222341299 7.659723672e-06 0)
(0.000223752944 8.674691312e-06 0)
(0.0002252345021 9.454909944e-06 0)
(0.0002267584008 1.000698298e-05 0)
(0.0002282923945 1.035077815e-05 0)
(0.0002298091343 1.051446003e-05 0)
(0.0002312898054 1.052631526e-05 0)
(0.0002327200802 1.04124294e-05 0)
(0.0002340873314 1.01971475e-05 0)
(0.000235381211 9.902893711e-06 0)
(0.0002365947396 9.54953971e-06 0)
(0.0002377243659 9.154117115e-06 0)
(0.0002387694543 8.730881081e-06 0)
(0.0002397317779 8.291484604e-06 0)
(0.0002406150789 7.845176738e-06 0)
(0.0002414245996 7.399049868e-06 0)
(0.000242166596 6.958340525e-06 0)
(0.0002428479003 6.526751991e-06 0)
(0.0002434755708 6.106767971e-06 0)
(0.0002440566264 5.699941448e-06 0)
(0.0002445978566 5.307156373e-06 0)
(0.0002451056943 4.928843481e-06 0)
(0.0002455861404 4.565147848e-06 0)
(0.0002460447222 4.216060233e-06 0)
(0.0002464864784 3.881519722e-06 0)
(0.0002469159624 3.561488897e-06 0)
(0.0002473372555 3.256004158e-06 0)
(0.0002477539844 2.965205807e-06 0)
(0.0002481693396 2.689352678e-06 0)
(0.0002485860913 2.42882598e-06 0)
(0.0002490066035 2.184125608e-06 0)
(0.0002494328463 1.95585907e-06 0)
(0.0002498664079 1.744723048e-06 0)
(0.0002503085031 1.551486653e-06 0)
(0.0002507599827 1.37696659e-06 0)
(0.0002512213301 1.222026983e-06 0)
(0.0002516926569 1.087554362e-06 0)
(0.0002521737193 9.744223217e-07 0)
(0.0002526639283 8.834860082e-07 0)
(0.0002531623493 8.155577107e-07 0)
(0.00025366771 7.713825617e-07 0)
(0.0002541784119 7.516210855e-07 0)
(0.0002546925415 7.568337975e-07 0)
(0.0002552078828 7.874680579e-07 0)
(0.0002557219336 8.43845548e-07 0)
(0.0002562319236 9.261496189e-07 0)
(0.0002186949526 8.183574156e-07 0)
(0.0002189753801 2.422554363e-06 0)
(0.0002195563144 3.918375675e-06 0)
(0.0002203982141 5.241182602e-06 0)
(0.0002214091269 6.363899266e-06 0)
(0.0002225192123 7.284128859e-06 0)
(0.0002236904018 8.005337138e-06 0)
(0.0002248948882 8.53409524e-06 0)
(0.0002261043512 8.883994438e-06 0)
(0.0002272939221 9.074634551e-06 0)
(0.0002284465699 9.127590739e-06 0)
(0.0002295522004 9.064133284e-06 0)
(0.0002306050676 8.904776308e-06 0)
(0.0002316024747 8.668932396e-06 0)
(0.0002325443688 8.374252571e-06 0)
(0.000233432824 8.036123629e-06 0)
(0.0002342713458 7.667530714e-06 0)
(0.0002350643017 7.279152787e-06 0)
(0.0002358165554 6.879547571e-06 0)
(0.0002365332101 6.475381631e-06 0)
(0.0002372193973 6.071695543e-06 0)
(0.0002378801098 5.672183471e-06 0)
(0.0002385200869 5.279463256e-06 0)
(0.0002391437446 4.895322359e-06 0)
(0.0002397551393 4.520934155e-06 0)
(0.0002403579553 4.157042098e-06 0)
(0.0002409555116 3.80411106e-06 0)
(0.0002415507799 3.462448417e-06 0)
(0.0002421464073 3.132298804e-06 0)
(0.0002427447394 2.813914756e-06 0)
(0.000243347844 2.507606467e-06 0)
(0.000243957531 2.213775029e-06 0)
(0.0002445753693 1.932931702e-06 0)
(0.0002452026997 1.665704705e-06 0)
(0.0002458406409 1.412841211e-06 0)
(0.0002464900917 1.175204519e-06 0)
(0.0002471517356 9.537576327e-07 0)
(0.0002478260304 7.495439586e-07 0)
(0.0002485132509 5.636827117e-07 0)
(0.0002492133631 3.973240147e-07 0)
(0.0002499260399 2.516366067e-07 0)
(0.0002506508288 1.278082404e-07 0)
(0.0002513870821 2.700060847e-08 0)
(0.0002521339111 -4.967026923e-08 0)
(0.0002528901836 -1.01149806e-07 0)
(0.0002536545307 -1.264646212e-07 0)
(0.000254425354 -1.247433809e-07 0)
(0.0002552008328 -9.523464661e-08 0)
(0.0002559789337 -3.732263143e-08 0)
(0.0002567574239 4.94595871e-08 0)
(0.0002186863741 6.523920362e-07 0)
(0.0002188945048 1.937735467e-06 0)
(0.0002193256352 3.152618611e-06 0)
(0.0002199608173 4.246810999e-06 0)
(0.0002207434151 5.193547593e-06 0)
(0.0002216254389 5.986231967e-06 0)
(0.0002225760198 6.626045681e-06 0)
(0.0002235706843 7.116530081e-06 0)
(0.0002245849334 7.46466023e-06 0)
(0.0002255961335 7.681553017e-06 0)
(0.0002265867434 7.780951835e-06 0)
(0.0002275447278 7.777521753e-06 0)
(0.0002284623061 7.68603416e-06 0)
(0.000229334987 7.52095367e-06 0)
(0.0002301611461 7.29597151e-06 0)
(0.0002309416172 7.023570486e-06 0)
(0.0002316791104 6.714780232e-06 0)
(0.000232377619 6.379107241e-06 0)
(0.0002330419412 6.02455935e-06 0)
(0.0002336773119 5.657724866e-06 0)
(0.0002342891111 5.283897768e-06 0)
(0.0002348826355 4.907238084e-06 0)
(0.0002354629371 4.530949302e-06 0)
(0.0002360347191 4.157456698e-06 0)
(0.0002366022785 3.788576623e-06 0)
(0.0002371694817 3.425670717e-06 0)
(0.0002377397633 3.069780475e-06 0)
(0.0002383161415 2.721740138e-06 0)
(0.0002389012419 2.382268655e-06 0)
(0.0002394973244 2.052042513e-06 0)
(0.0002401063127 1.731751903e-06 0)
(0.0002407298218 1.42213901e-06 0)
(0.0002413691793 1.124027434e-06 0)
(0.000242025451 8.383385986e-07 0)
(0.0002426994476 5.660907375e-07 0)
(0.0002433917892 3.084020426e-07 0)
(0.000244102843 6.649547207e-08 0)
(0.0002448327213 -1.583121069e-07 0)
(0.000245581276 -3.646275548e-07 0)
(0.0002463482212 -5.510215167e-07 0)
(0.0002471331013 -7.160457016e-07 0)
(0.0002479351212 -8.582424337e-07 0)
(0.0002487532185 -9.761819972e-07 0)
(0.0002495861102 -1.068481606e-06 0)
(0.0002504322979 -1.133822279e-06 0)
(0.0002512900673 -1.170971622e-06 0)
(0.0002521574975 -1.178808294e-06 0)
(0.0002530324737 -1.156344294e-06 0)
(0.0002539127035 -1.102744764e-06 0)
(0.0002547957334 -1.017344129e-06 0)
(0.000218680017 5.267591738e-07 0)
(0.0002188379578 1.566632788e-06 0)
(0.0002191671682 2.558788323e-06 0)
(0.0002196591888 3.468231818e-06 0)
(0.0002202773781 4.27254008e-06 0)
(0.0002209877537 4.961626876e-06 0)
(0.0002217657016 5.531828109e-06 0)
(0.0002225907813 5.982626475e-06 0)
(0.0002234432918 6.316745117e-06 0)
(0.0002243050892 6.540481349e-06 0)
(0.0002251613376 6.662822778e-06 0)
(0.0002260009488 6.69415027e-06 0)
(0.0002268160225 6.645377216e-06 0)
(0.00022760128 6.527488508e-06 0)
(0.0002283537734 6.351170821e-06 0)
(0.0002290726387 6.126464593e-06 0)
(0.0002297587408 5.862513561e-06 0)
(0.0002304142681 5.567438058e-06 0)
(0.0002310423645 5.248297624e-06 0)
(0.0002316468248 4.911109658e-06 0)
(0.0002322318375 4.560910573e-06 0)
(0.0002328017696 4.201850774e-06 0)
(0.0002333609946 3.83731119e-06 0)
(0.0002339137645 3.470028547e-06 0)
(0.0002344641188 3.10221982e-06 0)
(0.0002350158242 2.735699675e-06 0)
(0.0002355723382 2.371986216e-06 0)
(0.0002361367907 2.012392841e-06 0)
(0.0002367119791 1.658107931e-06 0)
(0.000237300371 1.310256216e-06 0)
(0.0002379041125 9.699569377e-07 0)
(0.0002385250325 6.383572782e-07 0)
(0.0002391646856 3.16652849e-07 0)
(0.0002398243521 6.116922604e-09 0)
(0.0002405049937 -2.9188243e-07 0)
(0.0002412072512 -5.758878393e-07 0)
(0.0002419315188 -8.443517716e-07 0)
(0.0002426779636 -1.095644523e-06 0)
(0.0002434464776 -1.328084168e-06 0)
(0.0002442366848 -1.539937478e-06 0)
(0.000245047955 -1.729441598e-06 0)
(0.0002458793925 -1.89483921e-06 0)
(0.0002467298346 -2.034389032e-06 0)
(0.0002475978627 -2.146396229e-06 0)
(0.000248481809 -2.22924414e-06 0)
(0.0002493797613 -2.281421926e-06 0)
(0.0002502895769 -2.301550343e-06 0)
(0.0002512088999 -2.288406221e-06 0)
(0.000252135183 -2.240944752e-06 0)
(0.0002530657104 -2.158319832e-06 0)
(0.0002186757064 4.300142613e-07 0)
(0.0002187995594 1.280827898e-06 0)
(0.000219058556 2.098536936e-06 0)
(0.0002194487407 2.857421743e-06 0)
(0.000219944818 3.538658812e-06 0)
(0.0002205224758 4.131290214e-06 0)
(0.0002211631385 4.629639237e-06 0)
(0.00022185073 5.031413929e-06 0)
(0.0002225696772 5.337274126e-06 0)
(0.0002233054896 5.550701847e-06 0)
(0.0002240458818 5.677415147e-06 0)
(0.0002247811753 5.724536845e-06 0)
(0.0002255040925 5.699932243e-06 0)
(0.0002262094454 5.611784572e-06 0)
(0.0002268939256 5.46827298e-06 0)
(0.00022755592 5.277286147e-06 0)
(0.0002281952725 5.046198161e-06 0)
(0.0002288130058 4.78173065e-06 0)
(0.0002294110543 4.489888376e-06 0)
(0.0002299920291 4.175945018e-06 0)
(0.0002305590153 3.844465282e-06 0)
(0.0002311153943 3.499355871e-06 0)
(0.0002316646956 3.143937355e-06 0)
(0.000232210477 2.781027953e-06 0)
(0.0002327562322 2.413031314e-06 0)
(0.0002333053213 2.042023221e-06 0)
(0.00023386092 1.669831916e-06 0)
(0.0002344259865 1.298110274e-06 0)
(0.0002350032369 9.284024332e-07 0)
(0.0002355951325 5.621992223e-07 0)
(0.0002362038857 2.009744999e-07 0)
(0.0002368314292 -1.537709672e-07 0)
(0.0002374793874 -5.004777332e-07 0)
(0.0002381491023 -8.375125073e-07 0)
(0.0002388416858 -1.163150722e-06 0)
(0.0002395579675 -1.475575974e-06 0)
(0.0002402984891 -1.772892074e-06 0)
(0.0002410635008 -2.05313268e-06 0)
(0.0002418529585 -2.314267436e-06 0)
(0.0002426665233 -2.554211828e-06 0)
(0.0002435035601 -2.770852543e-06 0)
(0.0002443631343 -2.962076461e-06 0)
(0.0002452440111 -3.125794759e-06 0)
(0.0002461446599 -3.259974313e-06 0)
(0.0002470632616 -3.36267157e-06 0)
(0.0002479977189 -3.432064135e-06 0)
(0.0002489456706 -3.466480709e-06 0)
(0.0002499045124 -3.464430168e-06 0)
(0.0002508714204 -3.424628819e-06 0)
(0.0002518433782 -3.346024726e-06 0)
(0.0002186726089 3.535817936e-07 0)
(0.0002187718768 1.054292437e-06 0)
(0.0002189797169 1.730906789e-06 0)
(0.0002192943727 2.363943902e-06 0)
(0.0002196977881 2.938192863e-06 0)
(0.0002201725006 3.443687288e-06 0)
(0.000220704813 3.874379804e-06 0)
(0.0002212823069 4.227025056e-06 0)
(0.0002218926182 4.500783189e-06 0)
(0.0002225240602 4.697036135e-06 0)
(0.0002231664906 4.819022764e-06 0)
(0.0002238116427 4.871321338e-06 0)
(0.0002244530565 4.859367438e-06 0)
(0.0002250859214 4.78908759e-06 0)
(0.0002257069481 4.666613843e-06 0)
(0.0002263142402 4.498042066e-06 0)
(0.0002269071288 4.289236859e-06 0)
(0.0002274859772 4.045695059e-06 0)
(0.0002280519822 3.772464419e-06 0)
(0.0002286069916 3.474104819e-06 0)
(0.000229153341 3.154681904e-06 0)
(0.0002296937086 2.817787111e-06 0)
(0.0002302309894 2.466578189e-06 0)
(0.0002307681898 2.103833447e-06 0)
(0.0002313083426 1.732014029e-06 0)
(0.0002318544377 1.353332044e-06 0)
(0.0002324093672 9.697997878e-07 0)
(0.0002329758858 5.833044576e-07 0)
(0.0002335565924 1.956488982e-07 0)
(0.0002341538868 -1.913955826e-07 0)
(0.0002347699302 -5.760533804e-07 0)
(0.0002354066733 -9.565042214e-07 0)
(0.0002360658431 -1.330850743e-06 0)
(0.000236748904 -1.697114164e-06 0)
(0.0002374570485 -2.05323324e-06 0)
(0.0002381911925 -2.397051554e-06 0)
(0.0002389519657 -2.726316362e-06 0)
(0.000239739699 -3.038685761e-06 0)
(0.000240554413 -3.331740729e-06 0)
(0.0002413958063 -3.60300434e-06 0)
(0.0002422632476 -3.849966961e-06 0)
(0.0002431557708 -4.07011534e-06 0)
(0.0002440720722 -4.260964045e-06 0)
(0.0002450105107 -4.42009022e-06 0)
(0.0002459691146 -4.54517082e-06 0)
(0.0002469455929 -4.634020138e-06 0)
(0.0002479373506 -4.684626506e-06 0)
(0.0002489415116 -4.695187608e-06 0)
(0.0002499549452 -4.66414327e-06 0)
(0.0002509742992 -4.590204295e-06 0)
(0.0002186702825 2.919195308e-07 0)
(0.0002187511443 8.711869703e-07 0)
(0.0002189206103 1.432456764e-06 0)
(0.0002191781188 1.960688466e-06 0)
(0.000219510382 2.443637091e-06 0)
(0.0002199046036 2.872578067e-06 0)
(0.0002203506498 3.241547096e-06 0)
(0.000220838991 3.546744141e-06 0)
(0.000221359875 3.786329388e-06 0)
(0.0002219039437 3.960289444e-06 0)
(0.0002224629371 4.07017877e-06 0)
(0.0002230299492 4.118763113e-06 0)
(0.0002235994117 4.109665826e-06 0)
(0.0002241670282 4.047072531e-06 0)
(0.0002247297167 3.935491192e-06 0)
(0.0002252855338 3.779550931e-06 0)
(0.0002258335643 3.583836829e-06 0)
(0.0002263737848 3.352765448e-06 0)
(0.0002269069206 3.090500717e-06 0)
(0.0002274343065 2.800904244e-06 0)
(0.0002279577584 2.487513695e-06 0)
(0.0002284794548 2.153544632e-06 0)
(0.0002290018319 1.801910933e-06 0)
(0.0002295274927 1.435258861e-06 0)
(0.0002300591343 1.055999546e-06 0)
(0.0002305994651 6.664070716e-07 0)
(0.0002311511688 2.685830138e-07 0)
(0.0002317168691 -1.354573534e-07 0)
(0.0002322990532 -5.437159846e-07 0)
(0.0002329000713 -9.541965469e-07 0)
(0.0002335221201 -1.364862342e-06 0)
(0.0002341672043 -1.773614198e-06 0)
(0.0002348371073 -2.17827594e-06 0)
(0.0002355333762 -2.576571443e-06 0)
(0.0002362573098 -2.966108928e-06 0)
(0.0002370099377 -3.344376197e-06 0)
(0.0002377919959 -3.70874413e-06 0)
(0.0002386039073 -4.056476194e-06 0)
(0.000239445764 -4.384743825e-06 0)
(0.0002403173102 -4.690647248e-06 0)
(0.0002412179284 -4.971241785e-06 0)
(0.0002421466281 -5.223570353e-06 0)
(0.0002431020387 -5.444700743e-06 0)
(0.0002440824064 -5.631766389e-06 0)
(0.000245085598 -5.782010017e-06 0)
(0.000246109112 -5.892828906e-06 0)
(0.0002471500951 -5.961819873e-06 0)
(0.0002482053673 -5.986822326e-06 0)
(0.0002492714534 -5.965958036e-06 0)
(0.0002503446211 -5.897666116e-06 0)
(0.0002186684961 2.414144526e-07 0)
(0.0002187352476 7.210491118e-07 0)
(0.0002188752382 1.186999876e-06 0)
(0.0002190885439 1.627362287e-06 0)
(0.0002193651091 2.032128403e-06 0)
(0.0002196953683 2.39372247e-06 0)
(0.0002200717945 2.706531769e-06 0)
(0.000220487131 2.966595225e-06 0)
(0.0002209337517 3.171525758e-06 0)
(0.0002214042135 3.320423688e-06 0)
(0.0002218918424 3.413686211e-06 0)
(0.0002223909432 3.452756238e-06 0)
(0.0002228968105 3.4398714e-06 0)
(0.0002234057147 3.377841717e-06 0)
(0.0002239148906 3.269858579e-06 0)
(0.0002244225011 3.11933097e-06 0)
(0.0002249275666 2.929748598e-06 0)
(0.0002254298724 2.704574016e-06 0)
(0.0002259298669 2.447163822e-06 0)
(0.0002264285586 2.160716377e-06 0)
(0.0002269274168 1.84824236e-06 0)
(0.0002274282774 1.512556945e-06 0)
(0.0002279332556 1.156289171e-06 0)
(0.0002284446553 7.818942007e-07 0)
(0.0002289649638 3.917014744e-07 0)
(0.0002294967115 -1.211506502e-08 0)
(0.0002300423823 -4.273991443e-07 0)
(0.0002306045118 -8.520249459e-07 0)
(0.0002311855878 -1.283870241e-06 0)
(0.0002317879705 -1.720772939e-06 0)
(0.0002324138889 -2.160503384e-06 0)
(0.0002330654159 -2.600740494e-06 0)
(0.0002337444409 -3.039045845e-06 0)
(0.0002344526417 -3.47284366e-06 0)
(0.0002351914549 -3.899412755e-06 0)
(0.0002359620468 -4.315885262e-06 0)
(0.0002367652868 -4.71924902e-06 0)
(0.000237601719 -5.106356274e-06 0)
(0.0002384715363 -5.473939964e-06 0)
(0.0002393745552 -5.818637054e-06 0)
(0.0002403101942 -6.137019064e-06 0)
(0.0002412774545 -6.425629776e-06 0)
(0.0002422749073 -6.681029017e-06 0)
(0.0002433006863 -6.89984129e-06 0)
(0.0002443524882 -7.078808259e-06 0)
(0.0002454275815 -7.21484357e-06 0)
(0.0002465228248 -7.305088077e-06 0)
(0.0002476346947 -7.346963232e-06 0)
(0.0002487593223 -7.33822045e-06 0)
(0.000249892539 -7.276984366e-06 0)
(0.0002186670937 1.995451712e-07 0)
(0.0002187227761 5.964779049e-07 0)
(0.0002188396043 9.82854015e-07 0)
(0.0002190179896 1.349025798e-06 0)
(0.0002192501583 1.68668016e-06 0)
(0.0002195288443 1.989239545e-06 0)
(0.0002198484292 2.251540131e-06 0)
(0.0002202033997 2.469660264e-06 0)
(0.0002205878124 2.640913666e-06 0)
(0.0002209957682 2.763808645e-06 0)
(0.000221421906 2.837918699e-06 0)
(0.0002218615822 2.86370901e-06 0)
(0.0002223108922 2.842360576e-06 0)
(0.0002227666818 2.775606454e-06 0)
(0.0002232265621 2.665583187e-06 0)
(0.0002236888995 2.5146995e-06 0)
(0.000224152775 2.325524594e-06 0)
(0.0002246179224 2.100697341e-06 0)
(0.0002250846584 1.842856223e-06 0)
(0.0002255538076 1.554589021e-06 0)
(0.0002260266289 1.238400881e-06 0)
(0.0002265047445 8.966925572e-07 0)
(0.000226990057 5.318111647e-07 0)
(0.0002274847117 1.459574499e-07 0)
(0.0002279909694 -2.587062933e-07 0)
(0.0002285112253 -6.800844998e-07 0)
(0.0002290480087 -1.116036841e-06 0)
(0.0002296038018 -1.564401638e-06 0)
(0.0002301810575 -2.022993786e-06 0)
(0.00023078219 -2.489544609e-06 0)
(0.0002314095231 -2.961670715e-06 0)
(0.0002320652544 -3.43685121e-06 0)
(0.0002327514232 -3.912407529e-06 0)
(0.0002334698731 -4.385488886e-06 0)
(0.0002342222178 -4.853061922e-06 0)
(0.0002350098067 -5.311905821e-06 0)
(0.0002358336878 -5.758614485e-06 0)
(0.0002366945712 -6.189606357e-06 0)
(0.0002375927924 -6.601142388e-06 0)
(0.0002385282785 -6.989352574e-06 0)
(0.0002395005158 -7.350271114e-06 0)
(0.0002405085225 -7.679880041e-06 0)
(0.0002415508277 -7.974160774e-06 0)
(0.0002426254573 -8.229152466e-06 0)
(0.0002437299301 -8.44101578e-06 0)
(0.0002448612638 -8.606100183e-06 0)
(0.0002460159938 -8.721012428e-06 0)
(0.0002471902039 -8.782683447e-06 0)
(0.0002483795698 -8.788430564e-06 0)
(0.000249579414 -8.736012106e-06 0)
(0.0002186659695 1.645061223e-07 0)
(0.0002187127862 4.921661232e-07 0)
(0.0002188110396 8.115967793e-07 0)
(0.0002189613075 1.114803596e-06 0)
(0.000219157477 1.394755759e-06 0)
(0.0002193939497 1.645690848e-06 0)
(0.0002196665035 1.862875938e-06 0)
(0.0002199709479 2.042509103e-06 0)
(0.0002203026599 2.181751537e-06 0)
(0.0002206569828 2.278721858e-06 0)
(0.000221029641 2.332413212e-06 0)
(0.0002214168912 2.342573879e-06 0)
(0.0002218155475 2.309583429e-06 0)
(0.0002222230045 2.234333205e-06 0)
(0.0002226372656 2.118113322e-06 0)
(0.0002230569511 1.962509945e-06 0)
(0.0002234812776 1.769316221e-06 0)
(0.0002239100207 1.540457952e-06 0)
(0.0002243434671 1.277934501e-06 0)
(0.0002247823622 9.83773837e-07 0)
(0.0002252278459 6.600027647e-07 0)
(0.0002256814598 3.086347417e-07 0)
(0.000226144976 -6.838617155e-08 0)
(0.000226620363 -4.690694621e-07 0)
(0.0002271098689 -8.914509263e-07 0)
(0.0002276158814 -1.333504175e-06 0)
(0.0002281408655 -1.793197746e-06 0)
(0.0002286873238 -2.26843346e-06 0)
(0.0002292577879 -2.756997606e-06 0)
(0.0002298547801 -3.256544831e-06 0)
(0.0002304807652 -3.7645739e-06 0)
(0.0002311381121 -4.278402498e-06 0)
(0.0002318290573 -4.795146451e-06 0)
(0.0002325556644 -5.311701897e-06 0)
(0.0002333197823 -5.82473224e-06 0)
(0.0002341230011 -6.330662199e-06 0)
(0.0002349666064 -6.825679433e-06 0)
(0.0002358515318 -7.305744277e-06 0)
(0.0002367783117 -7.766608813e-06 0)
(0.0002377470353 -8.203846153e-06 0)
(0.0002387573025 -8.612890254e-06 0)
(0.0002398081855 -8.989086355e-06 0)
(0.0002408981968 -9.327751802e-06 0)
(0.0002420252663 -9.624246332e-06 0)
(0.0002431867297 -9.874050166e-06 0)
(0.0002443793317 -1.007284751e-05 0)
(0.0002455992428 -1.021661239e-05 0)
(0.0002468420945 -1.030169322e-05 0)
(0.0002481030298 -1.032489215e-05 0)
(0.0002493767708 -1.028353531e-05 0)
(0.000218665051 1.349803642e-07 0)
(0.0002187046285 4.042342053e-07 0)
(0.0002187877001 6.670291001e-07 0)
(0.0002189149092 9.165940077e-07 0)
(0.000219081382 1.146866039e-06 0)
(0.0002192827523 1.352728702e-06 0)
(0.0002195158286 1.52982589e-06 0)
(0.0002197774232 1.674502827e-06 0)
(0.0002200639473 1.783855692e-06 0)
(0.0002203717398 1.855747005e-06 0)
(0.0002206974148 1.888755102e-06 0)
(0.0002210379874 1.882093028e-06 0)
(0.0002213908996 1.835522388e-06 0)
(0.0002217540475 1.749267592e-06 0)
(0.0002221258166 1.623931863e-06 0)
(0.0002225051001 1.460418801e-06 0)
(0.000222891293 1.259862897e-06 0)
(0.0002232842722 1.023570346e-06 0)
(0.0002236843662 7.529675891e-07 0)
(0.0002240923196 4.495779851e-07 0)
(0.0002245092632 1.14964233e-07 0)
(0.0002249366059 -2.49262164e-07 0)
(0.0002253761032 -6.414916927e-07 0)
(0.0002258298032 -1.059997878e-06 0)
(0.0002262998861 -1.503019477e-06 0)
(0.0002267887198 -1.968736759e-06 0)
(0.0002272988125 -2.455241895e-06 0)
(0.0002278327655 -2.960497232e-06 0)
(0.0002283932385 -3.482309326e-06 0)
(0.0002289829104 -4.018309297e-06 0)
(0.0002296044399 -4.565925095e-06 0)
(0.0002302604251 -5.122353551e-06 0)
(0.000230953363 -5.684536018e-06 0)
(0.0002316856028 -6.249137817e-06 0)
(0.0002324592968 -6.812532712e-06 0)
(0.0002332763474 -7.37079387e-06 0)
(0.0002341383513 -7.919692665e-06 0)
(0.0002350465406 -8.45470684e-06 0)
(0.0002360017223 -8.971039532e-06 0)
(0.0002370042173 -9.46365046e-06 0)
(0.0002380538025 -9.927300214e-06 0)
(0.000239149657 -1.035660825e-05 0)
(0.0002402903154 -1.074612465e-05 0)
(0.0002414736325 -1.109041486e-05 0)
(0.0002426967617 -1.138415563e-05 0)
(0.0002439561512 -1.16222392e-05 0)
(0.0002452475593 -1.179988176e-05 0)
(0.0002465660926 -1.191273176e-05 0)
(0.0002479062663 -1.195697268e-05 0)
(0.0002492620858 -1.192941452e-05 0)
(0.0002186642866 1.099907066e-07 0)
(0.0002186978426 3.297970958e-07 0)
(0.0002187682755 5.44517539e-07 0)
(0.000218876233 7.482934576e-07 0)
(0.0002190177867 9.357930263e-07 0)
(0.0002191894978 1.102403597e-06 0)
(0.0002193889411 1.244081742e-06 0)
(0.0002196136907 1.357315579e-06 0)
(0.0002198609645 1.439179813e-06 0)
(0.0002201278961 1.487362455e-06 0)
(0.0002204118232 1.500136654e-06 0)
(0.0002207103936 1.47630699e-06 0)
(0.0002210215882 1.41515079e-06 0)
(0.0002213437497 1.316357723e-06 0)
(0.0002216756199 1.179968404e-06 0)
(0.0002220163635 1.00631564e-06 0)
(0.0002223655727 7.959712742e-07 0)
(0.0002227232552 5.497003569e-07 0)
(0.000223089836 2.684227775e-07 0)
(0.0002234661035 -4.683372615e-08 0)
(0.0002238531785 -3.949307237e-07 0)
(0.0002242525309 -7.746500951e-07 0)
(0.0002246659389 -1.184649097e-06 0)
(0.000225095429 -1.623552167e-06 0)
(0.0002255432366 -2.089869201e-06 0)
(0.0002260118015 -2.581984012e-06 0)
(0.0002265037336 -3.098138929e-06 0)
(0.0002270217712 -3.63640905e-06 0)
(0.0002275687468 -4.194675131e-06 0)
(0.000228147552 -4.770594587e-06 0)
(0.0002287611003 -5.361570198e-06 0)
(0.0002294122849 -5.964719376e-06 0)
(0.0002301039331 -6.576845791e-06 0)
(0.0002308387556 -7.194413935e-06 0)
(0.0002316192897 -7.813527988e-06 0)
(0.0002324478381 -8.429917062e-06 0)
(0.0002333264015 -9.038928995e-06 0)
(0.0002342566058 -9.63553472e-06 0)
(0.0002352396258 -1.021434523e-05 0)
(0.0002362761073 -1.076964321e-05 0)
(0.0002373660898 -1.129543104e-05 0)
(0.0002385089329 -1.178549664e-05 0)
(0.0002397032508 -1.223349764e-05 0)
(0.000240946859 -1.263306331e-05 0)
(0.0002422367376 -1.297791255e-05 0)
(0.0002435690175 -1.326198442e-05 0)
(0.0002449389913 -1.347957648e-05 0)
(0.0002463411538 -1.3625485e-05 0)
(0.000247769273 -1.369513964e-05 0)
(0.000249216491 -1.36847245e-05 0)
(0.0002186636388 8.88024066e-08 0)
(0.0002186920955 2.666823326e-07 0)
(0.0002187518174 4.405609114e-07 0)
(0.0002188434184 6.052636375e-07 0)
(0.0002189637063 7.560103617e-07 0)
(0.0002191099511 8.885759451e-07 0)
(0.0002192803012 9.99166276e-07 0)