/*--------------------------------*- C++ -*----------------------------------*\
| =========                 |                                                 |
| \\      /  F ield         | foam-extend: Open Source CFD                    |
|  \\    /   O peration     | Version:     4.1                                |
|   \\  /    A nd           | Web:         http://www.foam-extend.org         |
|    \\/     M anipulation  |                                                 |
\*---------------------------------------------------------------------------*/
FoamFile
{
    version     2.0;
    format      ascii;
    class       volVectorField;
    location    "90000";
    object      vorticity;
}
// * * * * * * * * * * * * * * * * * * * * * * * * * * * * * * * * * * * * * //

dimensions      [0 0 -1 0 0 0 0];

internalField   nonuniform List<vector> 
15920
(
(0 -0 -0.008256007307)
(0 -0 -0.008404610183)
(0 -0 -0.008447872314)
(0 -0 -0.008321669395)
(0 -0 -0.008109341055)
(0 -0 -0.007868994619)
(0 -0 -0.007611611118)
(0 -0 -0.007338487206)
(0 -0 -0.007058192141)
(0 -0 -0.006781709286)
(0 -0 -0.006516744638)
(0 -0 -0.006267574071)
(0 -0 -0.006036646569)
(0 -0 -0.005825302814)
(0 -0 -0.00563386473)
(0 -0 -0.005461796066)
(0 -0 -0.005307996761)
(0 -0 -0.005171063016)
(0 -0 -0.005049457507)
(0 -0 -0.004941619436)
(0 -0 -0.004846040268)
(0 -0 -0.004761312606)
(0 -0 -0.004686156044)
(0 -0 -0.004619426656)
(0 -0 -0.004560114235)
(0 -0 -0.004507334643)
(0 -0 -0.004460318974)
(0 -0 -0.004418400647)
(0 -0 -0.004381001939)
(0 -0 -0.004347620868)
(0 -0 -0.004317818933)
(0 -0 -0.004291209888)
(0 -0 -0.00426744902)
(0 -0 -0.004246228249)
(0 -0 -0.004227271463)
(0 -0 -0.004210324022)
(0 -0 -0.004195145758)
(0 -0 -0.004181507636)
(0 -0 -0.004169189703)
(0 -0 -0.004157979895)
(0 -0 -0.004147674852)
(0 -0 -0.00413807637)
(0 -0 -0.004128983018)
(0 -0 -0.004120193723)
(0 -0 -0.004111513416)
(0 -0 -0.004102751022)
(0 -0 -0.004093718018)
(0 -0 -0.004084229009)
(0 -0 -0.004074102468)
(0 -0 -0.004063161501)
(0 -0 0.0003550260981)
(0 -0 -8.710192896e-06)
(0 -0 -0.0003969556244)
(0 -0 -0.000798649346)
(0 -0 -0.001196948422)
(0 -0 -0.001575541204)
(0 -0 -0.001925199452)
(0 -0 -0.002240771965)
(0 -0 -0.002518209361)
(0 -0 -0.002755210028)
(0 -0 -0.002952103152)
(0 -0 -0.003111365113)
(0 -0 -0.00323662199)
(0 -0 -0.003331979641)
(0 -0 -0.003401689243)
(0 -0 -0.003449912323)
(0 -0 -0.003480525079)
(0 -0 -0.00349699568)
(0 -0 -0.003502337776)
(0 -0 -0.003499112292)
(0 -0 -0.003489453702)
(0 -0 -0.003475109445)
(0 -0 -0.003457486378)
(0 -0 -0.003437699793)
(0 -0 -0.003416620962)
(0 -0 -0.003394920079)
(0 -0 -0.003373103996)
(0 -0 -0.003351548884)
(0 -0 -0.003330527864)
(0 -0 -0.003310233884)
(0 -0 -0.003290798283)
(0 -0 -0.00327230567)
(0 -0 -0.003254805743)
(0 -0 -0.003238321337)
(0 -0 -0.003222855085)
(0 -0 -0.003208396106)
(0 -0 -0.003194923822)
(0 -0 -0.003182410496)
(0 -0 -0.003170822857)
(0 -0 -0.003160122705)
(0 -0 -0.003150267302)
(0 -0 -0.003141212711)
(0 -0 -0.003132915167)
(0 -0 -0.003125327901)
(0 -0 -0.0031184004)
(0 -0 -0.003112079235)
(0 -0 -0.00310630861)
(0 -0 -0.003101030314)
(0 -0 -0.003096183517)
(0 -0 -0.003091704514)
(0 -0 0.0001750921451)
(0 -0 0.0002540971785)
(0 -0 0.0003179539195)
(0 -0 0.000345569241)
(0 -0 0.0003311778564)
(0 -0 0.0002769424929)
(0 -0 0.0001893295826)
(0 -0 7.625108338e-05)
(0 -0 -5.43571224e-05)
(0 -0 -0.0001951638675)
(0 -0 -0.0003398720316)
(0 -0 -0.0004834661938)
(0 -0 -0.0006222293642)
(0 -0 -0.0007536018112)
(0 -0 -0.0008759918466)
(0 -0 -0.000988579954)
(0 -0 -0.001091129469)
(0 -0 -0.001183817015)
(0 -0 -0.001267092809)
(0 -0 -0.00134157273)
(0 -0 -0.001407958572)
(0 -0 -0.001466981593)
(0 -0 -0.001519364825)
(0 -0 -0.001565798543)
(0 -0 -0.001606927384)
(0 -0 -0.00164334456)
(0 -0 -0.001675590302)
(0 -0 -0.001704153076)
(0 -0 -0.001729472476)
(0 -0 -0.001751943003)
(0 -0 -0.00177191819)
(0 -0 -0.001789714733)
(0 -0 -0.001805616485)
(0 -0 -0.001819877838)
(0 -0 -0.001832727236)
(0 -0 -0.001844370477)
(0 -0 -0.001854993024)
(0 -0 -0.00186476219)
(0 -0 -0.001873829136)
(0 -0 -0.001882330532)
(0 -0 -0.001890390079)
(0 -0 -0.001898120666)
(0 -0 -0.001905624849)
(0 -0 -0.001912994475)
(0 -0 -0.001920312623)
(0 -0 -0.001927654315)
(0 -0 -0.001935086719)
(0 -0 -0.001942669492)
(0 -0 -0.001950455097)
(0 -0 -0.001958488943)
(0 -0 0.0001485428922)
(0 -0 0.0001513714764)
(0 -0 0.000162205325)
(0 -0 0.0001813088077)
(0 -0 0.0002061103116)
(0 -0 0.0002324013793)
(0 -0 0.000255678659)
(0 -0 0.0002723266808)
(0 -0 0.0002800441401)
(0 -0 0.0002777966879)
(0 -0 0.0002656058361)
(0 -0 0.0002442684202)
(0 -0 0.0002150545681)
(0 -0 0.0001794462574)
(0 -0 0.0001389483571)
(0 -0 9.496707938e-05)
(0 -0 4.874209866e-05)
(0 -0 1.31832099e-06)
(0 -0 -4.645548519e-05)
(0 -0 -9.391205026e-05)
(0 -0 -0.0001405430547)
(0 -0 -0.0001859740237)
(0 -0 -0.000229939968)
(0 -0 -0.0002722632276)
(0 -0 -0.0003128349208)
(0 -0 -0.0003515995751)
(0 -0 -0.0003885426638)
(0 -0 -0.0004236807945)
(0 -0 -0.0004570540819)
(0 -0 -0.0004887202582)
(0 -0 -0.0005187501447)
(0 -0 -0.0005472241742)
(0 -0 -0.0005742297158)
(0 -0 -0.0005998589843)
(0 -0 -0.000624207442)
(0 -0 -0.0006473725614)
(0 -0 -0.0006694528087)
(0 -0 -0.00069054682)
(0 -0 -0.0007107527628)
(0 -0 -0.0007301677478)
(0 -0 -0.0007488873785)
(0 -0 -0.0007670054846)
(0 -0 -0.0007846138004)
(0 -0 -0.0008018016035)
(0 -0 -0.0008186555416)
(0 -0 -0.000835259411)
(0 -0 -0.0008516938748)
(0 -0 -0.0008680362775)
(0 -0 -0.0008843604756)
(0 -0 -0.0009007366365)
(0 -0 0.0001048972241)
(0 -0 0.0001058380852)
(0 -0 0.0001070568211)
(0 -0 0.0001090752006)
(0 -0 0.0001126614947)
(0 -0 0.0001184544836)
(0 -0 0.0001266810369)
(0 -0 0.000137081612)
(0 -0 0.0001490034892)
(0 -0 0.0001615608341)
(0 -0 0.0001738058104)
(0 -0 0.000184874657)
(0 -0 0.0001940806602)
(0 -0 0.0002009501372)
(0 -0 0.0002052173952)
(0 -0 0.0002067962545)
(0 -0 0.0002057410826)
(0 -0 0.0002022063965)
(0 -0 0.0001964106374)
(0 -0 0.0001886067982)
(0 -0 0.0001790603843)
(0 -0 0.0001680339669)
(0 -0 0.0001557771162)
(0 -0 0.0001425204381)
(0 -0 0.0001284725552)
(0 -0 0.0001138190631)
(0 -0 9.872275776e-05)
(0 -0 8.332463056e-05)
(0 -0 6.774527367e-05)
(0 -0 5.208646538e-05)
(0 -0 3.643279274e-05)
(0 -0 2.085323048e-05)
(0 -0 5.402633792e-06)
(0 -0 -9.876878557e-06)
(0 -0 -2.495463617e-05)
(0 -0 -3.981027795e-05)
(0 -0 -5.443270976e-05)
(0 -0 -6.881900966e-05)
(0 -0 -8.29740307e-05)
(0 -0 -9.690716804e-05)
(0 -0 -0.0001106329469)
(0 -0 -0.0001241733049)
(0 -0 -0.0001375553553)
(0 -0 -0.000150810398)
(0 -0 -0.0001639732758)
(0 -0 -0.0001770818553)
(0 -0 -0.0001901765517)
(0 -0 -0.0002032999039)
(0 -0 -0.0002164961804)
(0 -0 -0.0002298110152)
(0 -0 8.150771459e-05)
(0 -0 8.181395407e-05)
(0 -0 8.219263948e-05)
(0 -0 8.259593803e-05)
(0 -0 8.303133457e-05)
(0 -0 8.3586049e-05)
(0 -0 8.441880488e-05)
(0 -0 8.572076279e-05)
(0 -0 8.766270467e-05)
(0 -0 9.034992396e-05)
(0 -0 9.379870852e-05)
(0 -0 9.793668761e-05)
(0 -0 0.0001026204826)
(0 -0 0.0001076613859)
(0 -0 0.0001128516499)
(0 -0 0.0001179869273)
(0 -0 0.0001228826065)
(0 -0 0.0001273835994)
(0 -0 0.0001313684763)
(0 -0 0.0001347494533)
(0 -0 0.0001374697437)
(0 -0 0.0001394994885)
(0 -0 0.0001408311464)
(0 -0 0.0001414749194)
(0 -0 0.0001414545535)
(0 -0 0.0001408036749)
(0 -0 0.0001395627013)
(0 -0 0.0001377763075)
(0 -0 0.0001354913886)
(0 -0 0.0001327554524)
(0 -0 0.0001296153629)
(0 -0 0.0001261163841)
(0 -0 0.000122301448)
(0 -0 0.0001182105429)
(0 -0 0.0001138806128)
(0 -0 0.0001093440526)
(0 -0 0.0001046297851)
(0 -0 9.976376443e-05)
(0 -0 9.47686354e-05)
(0 -0 8.966102459e-05)
(0 -0 8.44532168e-05)
(0 -0 7.915606325e-05)
(0 -0 7.377723349e-05)
(0 -0 6.832102036e-05)
(0 -0 6.278838447e-05)
(0 -0 5.717705329e-05)
(0 -0 5.148162958e-05)
(0 -0 4.569369977e-05)
(0 -0 3.980195686e-05)
(0 -0 3.379232574e-05)
(0 -0 6.505190034e-05)
(0 -0 6.525411045e-05)
(0 -0 6.550981308e-05)
(0 -0 6.580373036e-05)
(0 -0 6.612050028e-05)
(0 -0 6.644162371e-05)
(0 -0 6.675145764e-05)
(0 -0 6.704750165e-05)
(0 -0 6.734676141e-05)
(0 -0 6.768394928e-05)
(0 -0 6.810386341e-05)
(0 -0 6.865209082e-05)
(0 -0 6.9366701e-05)
(0 -0 7.02723279e-05)
(0 -0 7.137732895e-05)
(0 -0 7.267392473e-05)
(0 -0 7.41405174e-05)
(0 -0 7.574515065e-05)
(0 -0 7.744925986e-05)
(0 -0 7.921116719e-05)
(0 -0 8.098902653e-05)
(0 -0 8.274309307e-05)
(0 -0 8.443731015e-05)
(0 -0 8.604028421e-05)
(0 -0 8.752575987e-05)
(0 -0 8.887271724e-05)
(0 -0 9.006520298e-05)
(0 -0 9.109198847e-05)
(0 -0 9.194612305e-05)
(0 -0 9.262444884e-05)
(0 -0 9.312704276e-05)
(0 -0 9.345685924e-05)
(0 -0 9.361866414e-05)
(0 -0 9.361853411e-05)
(0 -0 9.346453061e-05)
(0 -0 9.316692757e-05)
(0 -0 9.273648108e-05)
(0 -0 9.218326038e-05)
(0 -0 9.15177315e-05)
(0 -0 9.074811127e-05)
(0 -0 8.98811768e-05)
(0 -0 8.892531781e-05)
(0 -0 8.788897012e-05)
(0 -0 8.677996057e-05)
(0 -0 8.560524152e-05)
(0 -0 8.437073655e-05)
(0 -0 8.308122545e-05)
(0 -0 8.174024517e-05)
(0 -0 8.035001668e-05)
(0 -0 7.891140854e-05)
(0 -0 5.254815442e-05)
(0 -0 5.269963767e-05)
(0 -0 5.288156043e-05)
(0 -0 5.308532494e-05)
(0 -0 5.330681738e-05)
(0 -0 5.354146229e-05)
(0 -0 5.378261585e-05)
(0 -0 5.402201061e-05)
(0 -0 5.425149661e-05)
(0 -0 5.44648188e-05)
(0 -0 5.465895596e-05)
(0 -0 5.483491015e-05)
(0 -0 5.499772848e-05)
(0 -0 5.515567171e-05)
(0 -0 5.531881282e-05)
(0 -0 5.549751238e-05)
(0 -0 5.570109417e-05)
(0 -0 5.59368653e-05)
(0 -0 5.620952796e-05)
(0 -0 5.652097914e-05)
(0 -0 5.687044341e-05)
(0 -0 5.725483995e-05)
(0 -0 5.766927376e-05)
(0 -0 5.810755765e-05)
(0 -0 5.856270554e-05)
(0 -0 5.902736731e-05)
(0 -0 5.949419465e-05)
(0 -0 5.995614259e-05)
(0 -0 6.04066841e-05)
(0 -0 6.084006297e-05)
(0 -0 6.125106657e-05)
(0 -0 6.163524946e-05)
(0 -0 6.198983025e-05)
(0 -0 6.231359314e-05)
(0 -0 6.260511722e-05)
(0 -0 6.286470015e-05)
(0 -0 6.309316067e-05)
(0 -0 6.32910992e-05)
(0 -0 6.345902531e-05)
(0 -0 6.360002197e-05)
(0 -0 6.371828104e-05)
(0 -0 6.381605137e-05)
(0 -0 6.389522157e-05)
(0 -0 6.395762952e-05)
(0 -0 6.400508242e-05)
(0 -0 6.403931359e-05)
(0 -0 6.406193024e-05)
(0 -0 6.407436532e-05)
(0 -0 6.407782154e-05)
(0 -0 6.407320577e-05)
(0 -0 4.291921508e-05)
(0 -0 4.303468799e-05)
(0 -0 4.316387219e-05)
(0 -0 4.329936929e-05)
(0 -0 4.343851243e-05)
(0 -0 4.357957271e-05)
(0 -0 4.372086451e-05)
(0 -0 4.386035949e-05)
(0 -0 4.399566947e-05)
(0 -0 4.412410586e-05)
(0 -0 4.424281499e-05)
(0 -0 4.434904824e-05)
(0 -0 4.444051268e-05)
(0 -0 4.451568983e-05)
(0 -0 4.457404516e-05)
(0 -0 4.461609958e-05)
(0 -0 4.46433526e-05)
(0 -0 4.465807216e-05)
(0 -0 4.466300527e-05)
(0 -0 4.46610862e-05)
(0 -0 4.465520005e-05)
(0 -0 4.464802024e-05)
(0 -0 4.464190677e-05)
(0 -0 4.46388442e-05)
(0 -0 4.4640406e-05)
(0 -0 4.464774524e-05)
(0 -0 4.466159727e-05)
(0 -0 4.468236203e-05)
(0 -0 4.470995717e-05)
(0 -0 4.47439852e-05)
(0 -0 4.478439086e-05)
(0 -0 4.483087658e-05)
(0 -0 4.488331073e-05)
(0 -0 4.494213747e-05)
(0 -0 4.50073177e-05)
(0 -0 4.507764015e-05)
(0 -0 4.515214552e-05)
(0 -0 4.52309072e-05)
(0 -0 4.531431219e-05)
(0 -0 4.540294269e-05)
(0 -0 4.549753221e-05)
(0 -0 4.559887854e-05)
(0 -0 4.570780176e-05)
(0 -0 4.582512104e-05)
(0 -0 4.595164066e-05)
(0 -0 4.608814122e-05)
(0 -0 4.623537533e-05)
(0 -0 4.63940647e-05)
(0 -0 4.656489263e-05)
(0 -0 4.674849403e-05)
(0 -0 3.530533294e-05)
(0 -0 3.54014271e-05)
(0 -0 3.55002e-05)
(0 -0 3.559459064e-05)
(0 -0 3.568230632e-05)
(0 -0 3.576211769e-05)
(0 -0 3.583321836e-05)
(0 -0 3.589486359e-05)
(0 -0 3.594632021e-05)
(0 -0 3.598690719e-05)
(0 -0 3.601602343e-05)
(0 -0 3.6033139e-05)
(0 -0 3.603777308e-05)
(0 -0 3.602950497e-05)
(0 -0 3.600803951e-05)
(0 -0 3.597329905e-05)
(0 -0 3.59254894e-05)
(0 -0 3.586510949e-05)
(0 -0 3.579291739e-05)
(0 -0 3.57098892e-05)
(0 -0 3.561719607e-05)
(0 -0 3.551619777e-05)
(0 -0 3.540843167e-05)
(0 -0 3.529558265e-05)
(0 -0 3.517942319e-05)
(0 -0 3.506176749e-05)
(0 -0 3.494433456e-05)
(0 -0 3.482857622e-05)
(0 -0 3.47161731e-05)
(0 -0 3.460866653e-05)
(0 -0 3.450759584e-05)
(0 -0 3.441456332e-05)
(0 -0 3.433035167e-05)
(0 -0 3.425495931e-05)
(0 -0 3.418908389e-05)
(0 -0 3.413351677e-05)
(0 -0 3.408900859e-05)
(0 -0 3.405626093e-05)
(0 -0 3.40359257e-05)
(0 -0 3.402860629e-05)
(0 -0 3.403485998e-05)
(0 -0 3.40551966e-05)
(0 -0 3.409007528e-05)
(0 -0 3.413990081e-05)
(0 -0 3.42050238e-05)
(0 -0 3.428574515e-05)
(0 -0 3.438232349e-05)
(0 -0 3.449498374e-05)
(0 -0 3.462392413e-05)
(0 -0 3.476932152e-05)
(0 -0 2.915991851e-05)
(0 -0 2.924601487e-05)
(0 -0 2.932711064e-05)
(0 -0 2.939608342e-05)
(0 -0 2.945081881e-05)
(0 -0 2.949039703e-05)
(0 -0 2.951452286e-05)
(0 -0 2.952307479e-05)
(0 -0 2.951596322e-05)
(0 -0 2.949316682e-05)
(0 -0 2.945480704e-05)
(0 -0 2.940116749e-05)
(0 -0 2.933265557e-05)
(0 -0 2.924976902e-05)
(0 -0 2.915310973e-05)
(0 -0 2.904342239e-05)
(0 -0 2.892160855e-05)
(0 -0 2.878869427e-05)
(0 -0 2.864577566e-05)
(0 -0 2.849398445e-05)
(0 -0 2.833449418e-05)
(0 -0 2.81685561e-05)
(0 -0 2.799753231e-05)
(0 -0 2.782290572e-05)
(0 -0 2.76462804e-05)
(0 -0 2.746911132e-05)
(0 -0 2.729308567e-05)
(0 -0 2.712000395e-05)
(0 -0 2.695161315e-05)
(0 -0 2.678966841e-05)
(0 -0 2.663538438e-05)
(0 -0 2.648980889e-05)
(0 -0 2.635411417e-05)
(0 -0 2.622942011e-05)
(0 -0 2.611675335e-05)
(0 -0 2.601703333e-05)
(0 -0 2.593107704e-05)
(0 -0 2.585960789e-05)
(0 -0 2.580325929e-05)
(0 -0 2.576257227e-05)
(0 -0 2.573799034e-05)
(0 -0 2.572985359e-05)
(0 -0 2.573839739e-05)
(0 -0 2.576375535e-05)
(0 -0 2.580596566e-05)
(0 -0 2.586498094e-05)
(0 -0 2.594068035e-05)
(0 -0 2.603288328e-05)
(0 -0 2.614136368e-05)
(0 -0 2.626586361e-05)
(0 -0 2.412536469e-05)
(0 -0 2.420699846e-05)
(0 -0 2.42779487e-05)
(0 -0 2.433079647e-05)
(0 -0 2.436347844e-05)
(0 -0 2.437526972e-05)
(0 -0 2.436623081e-05)
(0 -0 2.433667583e-05)
(0 -0 2.42869637e-05)
(0 -0 2.421752215e-05)
(0 -0 2.412893553e-05)
(0 -0 2.402196963e-05)
(0 -0 2.389752708e-05)
(0 -0 2.375660819e-05)
(0 -0 2.360032436e-05)
(0 -0 2.342993674e-05)
(0 -0 2.324686285e-05)
(0 -0 2.305262946e-05)
(0 -0 2.284880238e-05)
(0 -0 2.263694147e-05)
(0 -0 2.241860379e-05)
(0 -0 2.219537494e-05)
(0 -0 2.196892954e-05)
(0 -0 2.174092722e-05)
(0 -0 2.151306523e-05)
(0 -0 2.128728132e-05)
(0 -0 2.106545475e-05)
(0 -0 2.084956832e-05)
(0 -0 2.06412147e-05)
(0 -0 2.044179748e-05)
(0 -0 2.025275197e-05)
(0 -0 2.007543616e-05)
(0 -0 1.991110413e-05)
(0 -0 1.97608901e-05)
(0 -0 1.962580035e-05)
(0 -0 1.950671398e-05)
(0 -0 1.940438625e-05)
(0 -0 1.931944949e-05)
(0 -0 1.925241211e-05)
(0 -0 1.920365601e-05)
(0 -0 1.917343332e-05)
(0 -0 1.91618634e-05)
(0 -0 1.916893265e-05)
(0 -0 1.919449929e-05)
(0 -0 1.923830131e-05)
(0 -0 1.929996789e-05)
(0 -0 1.937903404e-05)
(0 -0 1.947495849e-05)
(0 -0 1.958714348e-05)
(0 -0 1.971495301e-05)
(0 -0 1.995110895e-05)
(0 -0 2.003194931e-05)
(0 -0 2.009766911e-05)
(0 -0 2.014038132e-05)
(0 -0 2.015798654e-05)
(0 -0 2.014987106e-05)
(0 -0 2.011633674e-05)
(0 -0 2.005800123e-05)
(0 -0 1.99755467e-05)
(0 -0 1.986974142e-05)
(0 -0 1.974153621e-05)
(0 -0 1.959208645e-05)
(0 -0 1.942269598e-05)
(0 -0 1.923476981e-05)
(0 -0 1.902982601e-05)
(0 -0 1.880953534e-05)
(0 -0 1.857572502e-05)
(0 -0 1.833032431e-05)
(0 -0 1.807528754e-05)
(0 -0 1.781254398e-05)
(0 -0 1.754400715e-05)
(0 -0 1.72716087e-05)
(0 -0 1.699721319e-05)
(0 -0 1.672290882e-05)
(0 -0 1.645085043e-05)
(0 -0 1.618333756e-05)
(0 -0 1.592240936e-05)
(0 -0 1.566983632e-05)
(0 -0 1.542742314e-05)
(0 -0 1.519688369e-05)
(0 -0 1.497980911e-05)
(0 -0 1.477765484e-05)
(0 -0 1.459172896e-05)
(0 -0 1.442318662e-05)
(0 -0 1.427302869e-05)
(0 -0 1.414210123e-05)
(0 -0 1.403109546e-05)
(0 -0 1.394054713e-05)
(0 -0 1.387083532e-05)
(0 -0 1.382218127e-05)
(0 -0 1.379464727e-05)
(0 -0 1.378813719e-05)
(0 -0 1.380239821e-05)
(0 -0 1.383702633e-05)
(0 -0 1.389147693e-05)
(0 -0 1.396507986e-05)
(0 -0 1.405705856e-05)
(0 -0 1.416655144e-05)
(0 -0 1.42926334e-05)
(0 -0 1.443433419e-05)
(0 -0 1.645765979e-05)
(0 -0 1.654021978e-05)
(0 -0 1.660402174e-05)
(0 -0 1.66405818e-05)
(0 -0 1.664770681e-05)
(0 -0 1.662484427e-05)
(0 -0 1.65724687e-05)
(0 -0 1.649142002e-05)
(0 -0 1.638262239e-05)
(0 -0 1.624710863e-05)
(0 -0 1.608612521e-05)
(0 -0 1.590115164e-05)
(0 -0 1.569383448e-05)
(0 -0 1.546593252e-05)
(0 -0 1.521932721e-05)
(0 -0 1.495606154e-05)
(0 -0 1.467833908e-05)
(0 -0 1.438846147e-05)
(0 -0 1.408874207e-05)
(0 -0 1.378146756e-05)
(0 -0 1.346883652e-05)
(0 -0 1.315304884e-05)
(0 -0 1.283647217e-05)
(0 -0 1.252155093e-05)
(0 -0 1.22107987e-05)
(0 -0 1.190643866e-05)
(0 -0 1.161069078e-05)
(0 -0 1.132572935e-05)
(0 -0 1.105359688e-05)
(0 -0 1.07961843e-05)
(0 -0 1.055522272e-05)
(0 -0 1.033227284e-05)
(0 -0 1.01287179e-05)
(0 -0 9.94575932e-06)
(0 -0 9.784413092e-06)
(0 -0 9.645506943e-06)
(0 -0 9.529678648e-06)
(0 -0 9.437375755e-06)
(0 -0 9.368856005e-06)
(0 -0 9.324189229e-06)
(0 -0 9.303260078e-06)
(0 -0 9.305771204e-06)
(0 -0 9.331246736e-06)
(0 -0 9.379038336e-06)
(0 -0 9.44833779e-06)
(0 -0 9.538196239e-06)
(0 -0 9.647547627e-06)
(0 -0 9.775232282e-06)
(0 -0 9.920017947e-06)
(0 -0 1.008061916e-05)
(0 -0 1.351402348e-05)
(0 -0 1.360008958e-05)
(0 -0 1.366427802e-05)
(0 -0 1.369741498e-05)
(0 -0 1.369717382e-05)
(0 -0 1.366303365e-05)
(0 -0 1.3595601e-05)
(0 -0 1.34958885e-05)
(0 -0 1.336501159e-05)
(0 -0 1.32042188e-05)
(0 -0 1.301500596e-05)
(0 -0 1.279913318e-05)
(0 -0 1.255854963e-05)
(0 -0 1.229533238e-05)
(0 -0 1.201169559e-05)
(0 -0 1.171002823e-05)
(0 -0 1.139288697e-05)
(0 -0 1.106292783e-05)
(0 -0 1.072281358e-05)
(0 -0 1.037509015e-05)
(0 -0 1.002234337e-05)
(0 -0 9.667179624e-06)
(0 -0 9.312348517e-06)
(0 -0 8.960485135e-06)
(0 -0 8.614174288e-06)
(0 -0 8.276037243e-06)
(0 -0 7.948625671e-06)
(0 -0 7.634366305e-06)
(0 -0 7.335521177e-06)
(0 -0 7.054168665e-06)
(0 -0 6.792192607e-06)
(0 -0 6.55127264e-06)
(0 -0 6.332877196e-06)
(0 -0 6.138258833e-06)
(0 -0 5.968450134e-06)
(0 -0 5.824260089e-06)
(0 -0 5.706272532e-06)
(0 -0 5.61484803e-06)
(0 -0 5.550128456e-06)
(0 -0 5.51204208e-06)
(0 -0 5.500308265e-06)
(0 -0 5.514441228e-06)
(0 -0 5.553754911e-06)
(0 -0 5.617370982e-06)
(0 -0 5.704233469e-06)
(0 -0 5.81312986e-06)
(0 -0 5.942715916e-06)
(0 -0 6.091539973e-06)
(0 -0 6.258066204e-06)
(0 -0 6.440699964e-06)
(0 -0 1.102293953e-05)
(0 -0 1.111383061e-05)
(0 -0 1.118006295e-05)
(0 -0 1.121170437e-05)
(0 -0 1.120626688e-05)
(0 -0 1.116324309e-05)
(0 -0 1.108334659e-05)
(0 -0 1.096773157e-05)
(0 -0 1.081767256e-05)
(0 -0 1.063460326e-05)
(0 -0 1.042023967e-05)
(0 -0 1.017659489e-05)
(0 -0 9.905895229e-06)
(0 -0 9.610512903e-06)
(0 -0 9.292973231e-06)
(0 -0 8.95598998e-06)
(0 -0 8.602459152e-06)
(0 -0 8.235352655e-06)
(0 -0 7.85762965e-06)
(0 -0 7.472252969e-06)
(0 -0 7.082153631e-06)
(0 -0 6.690293777e-06)
(0 -0 6.299517643e-06)
(0 -0 5.912770422e-06)
(0 -0 5.533036051e-06)
(0 -0 5.163260562e-06)
(0 -0 4.806294438e-06)
(0 -0 4.464837348e-06)
(0 -0 4.141394891e-06)
(0 -0 3.838248658e-06)
(0 -0 3.557437947e-06)
(0 -0 3.300750902e-06)
(0 -0 3.069722617e-06)
(0 -0 2.865636389e-06)
(0 -0 2.689524708e-06)
(0 -0 2.542168742e-06)
(0 -0 2.424098681e-06)
(0 -0 2.33559659e-06)
(0 -0 2.276701622e-06)
(0 -0 2.247215208e-06)
(0 -0 2.246704628e-06)
(0 -0 2.274506358e-06)
(0 -0 2.329732383e-06)
(0 -0 2.411281189e-06)
(0 -0 2.517853569e-06)
(0 -0 2.647973644e-06)
(0 -0 2.800014623e-06)
(0 -0 2.972228294e-06)
(0 -0 3.162777641e-06)
(0 -0 3.36977149e-06)
(0 -0 8.911244925e-06)
(0 -0 9.007961308e-06)
(0 -0 9.077464323e-06)
(0 -0 9.109009753e-06)
(0 -0 9.099927698e-06)
(0 -0 9.049712914e-06)
(0 -0 8.959171392e-06)
(0 -0 8.829579353e-06)
(0 -0 8.662350065e-06)
(0 -0 8.459083436e-06)
(0 -0 8.221697946e-06)
(0 -0 7.952442784e-06)
(0 -0 7.653804512e-06)
(0 -0 7.328431604e-06)
(0 -0 6.97913912e-06)
(0 -0 6.608944398e-06)
(0 -0 6.221023999e-06)
(0 -0 5.818684725e-06)
(0 -0 5.405244989e-06)
(0 -0 4.984032756e-06)
(0 -0 4.558264827e-06)
(0 -0 4.131121898e-06)
(0 -0 3.705871198e-06)
(0 -0 3.285834895e-06)
(0 -0 2.87434101e-06)
(0 -0 2.474657604e-06)
(0 -0 2.08992881e-06)
(0 -0 1.72311627e-06)
(0 -0 1.376949558e-06)
(0 -0 1.053889924e-06)
(0 -0 7.561102777e-07)
(0 -0 4.854903113e-07)
(0 -0 2.436219391e-07)
(0 -0 3.181772566e-08)
(0 -0 -1.488831256e-07)
(0 -0 -2.977129526e-07)
(0 -0 -4.141763764e-07)
(0 -0 -4.98050365e-07)
(0 -0 -5.493829672e-07)
(0 -0 -5.684911811e-07)
(0 -0 -5.559585265e-07)
(0 -0 -5.126302127e-07)
(0 -0 -4.39603638e-07)
(0 -0 -3.382135728e-07)
(0 -0 -2.100136977e-07)
(0 -0 -5.67538206e-08)
(0 -0 1.196498542e-07)
(0 -0 3.171537953e-07)
(0 -0 5.33630353e-07)
(0 -0 7.669086503e-07)
(0 -0 7.123313693e-06)
(0 -0 7.226626688e-06)
(0 -0 7.300330758e-06)
(0 -0 7.332822749e-06)
(0 -0 7.321235222e-06)
(0 -0 7.265056393e-06)
(0 -0 7.165175911e-06)
(0 -0 7.022980984e-06)
(0 -0 6.840012314e-06)
(0 -0 6.618025647e-06)
(0 -0 6.35913101e-06)
(0 -0 6.065798001e-06)
(0 -0 5.740749159e-06)
(0 -0 5.386878165e-06)
(0 -0 5.007250024e-06)
(0 -0 4.605140059e-06)
(0 -0 4.184061988e-06)
(0 -0 3.747664651e-06)
(0 -0 3.299666488e-06)
(0 -0 2.843685349e-06)
(0 -0 2.383340437e-06)
(0 -0 1.922272947e-06)
(0 -0 1.46414496e-06)
(0 -0 1.01261491e-06)
(0 -0 5.71287279e-07)
(0 -0 1.436569305e-07)
(0 -0 -2.669383304e-07)
(0 -0 -6.573578176e-07)
(0 -0 -1.024694918e-06)
(0 -0 -1.366310649e-06)
(0 -0 -1.67985992e-06)
(0 -0 -1.963307423e-06)
(0 -0 -2.214933643e-06)
(0 -0 -2.43333454e-06)
(0 -0 -2.617419317e-06)
(0 -0 -2.766408255e-06)
(0 -0 -2.879831653e-06)
(0 -0 -2.957529195e-06)
(0 -0 -2.999648481e-06)
(0 -0 -3.006642059e-06)
(0 -0 -2.979261932e-06)
(0 -0 -2.91855131e-06)
(0 -0 -2.825832673e-06)
(0 -0 -2.702691255e-06)
(0 -0 -2.550952335e-06)
(0 -0 -2.372651228e-06)
(0 -0 -2.169994501e-06)
(0 -0 -1.945313157e-06)
(0 -0 -1.701015682e-06)
(0 -0 -1.439549899e-06)
(0 -0 5.61645595e-06)
(0 -0 5.726965716e-06)
(0 -0 5.80559045e-06)
(0 -0 5.839823156e-06)
(0 -0 5.826587348e-06)
(0 -0 5.765357499e-06)
(0 -0 5.657101461e-06)
(0 -0 5.50331331e-06)
(0 -0 5.305657523e-06)
(0 -0 5.066037562e-06)
(0 -0 4.78673377e-06)
(0 -0 4.470396752e-06)
(0 -0 4.119934477e-06)
(0 -0 3.73843725e-06)
(0 -0 3.329226368e-06)
(0 -0 2.895921818e-06)
(0 -0 2.442457749e-06)
(0 -0 1.972951983e-06)
(0 -0 1.491522378e-06)
(0 -0 1.002229267e-06)
(0 -0 5.090385054e-07)
(0 -0 1.585511205e-08)
(0 -0 -4.734330936e-07)
(0 -0 -9.549448099e-07)
(0 -0 -1.424836617e-06)
(0 -0 -1.879359675e-06)
(0 -0 -2.314920155e-06)
(0 -0 -2.72813128e-06)
(0 -0 -3.115854653e-06)
(0 -0 -3.475233223e-06)
(0 -0 -3.803718464e-06)
(0 -0 -4.099092178e-06)
(0 -0 -4.359482575e-06)
(0 -0 -4.58337425e-06)
(0 -0 -4.769612322e-06)
(0 -0 -4.917401743e-06)
(0 -0 -5.026303883e-06)
(0 -0 -5.096232459e-06)
(0 -0 -5.127448164e-06)
(0 -0 -5.120551332e-06)
(0 -0 -5.076472183e-06)
(0 -0 -4.996460139e-06)
(0 -0 -4.882072101e-06)
(0 -0 -4.735155101e-06)
(0 -0 -4.557817997e-06)
(0 -0 -4.352390929e-06)
(0 -0 -4.121375682e-06)
(0 -0 -3.867395083e-06)
(0 -0 -3.593147696e-06)
(0 -0 -3.301373517e-06)
(0 -0 4.357616594e-06)
(0 -0 4.475794832e-06)
(0 -0 4.559904831e-06)
(0 -0 4.596493703e-06)
(0 -0 4.582267937e-06)
(0 -0 4.516684333e-06)
(0 -0 4.400788416e-06)
(0 -0 4.236181804e-06)
(0 -0 4.024643083e-06)
(0 -0 3.768187456e-06)
(0 -0 3.469202834e-06)
(0 -0 3.130461093e-06)
(0 -0 2.755049041e-06)
(0 -0 2.346357309e-06)
(0 -0 1.908125708e-06)
(0 -0 1.444496653e-06)
(0 -0 9.598785106e-07)
(0 -0 4.587762601e-07)
(0 -0 -5.438990087e-08)
(0 -0 -5.753786583e-07)
(0 -0 -1.100087072e-06)
(0 -0 -1.624443259e-06)
(0 -0 -2.144317828e-06)
(0 -0 -2.655507825e-06)
(0 -0 -3.153793983e-06)
(0 -0 -3.63503716e-06)
(0 -0 -4.095276043e-06)
(0 -0 -4.530802936e-06)
(0 -0 -4.938212546e-06)
(0 -0 -5.314430899e-06)
(0 -0 -5.656733907e-06)
(0 -0 -5.962761417e-06)
(0 -0 -6.23052953e-06)
(0 -0 -6.45844144e-06)
(0 -0 -6.645295241e-06)
(0 -0 -6.790287079e-06)
(0 -0 -6.893009448e-06)
(0 -0 -6.953445665e-06)
(0 -0 -6.971961911e-06)
(0 -0 -6.949297734e-06)
(0 -0 -6.886556424e-06)
(0 -0 -6.785194974e-06)
(0 -0 -6.647011757e-06)
(0 -0 -6.474124955e-06)
(0 -0 -6.268935787e-06)
(0 -0 -6.034077374e-06)
(0 -0 -5.772358681e-06)
(0 -0 -5.486712762e-06)
(0 -0 -5.18015176e-06)
(0 -0 -4.855728896e-06)
(0 -0 3.320956386e-06)
(0 -0 3.447180424e-06)
(0 -0 3.537221755e-06)
(0 -0 3.576648573e-06)
(0 -0 3.561947143e-06)
(0 -0 3.492560011e-06)
(0 -0 3.369612065e-06)
(0 -0 3.194794617e-06)
(0 -0 2.96994631e-06)
(0 -0 2.697120742e-06)
(0 -0 2.378782051e-06)
(0 -0 2.017903368e-06)
(0 -0 1.617948814e-06)
(0 -0 1.182811837e-06)
(0 -0 7.167531438e-07)
(0 -0 2.24280854e-07)
(0 -0 -2.899676707e-07)
(0 -0 -8.213809854e-07)
(0 -0 -1.365460729e-06)
(0 -0 -1.91780704e-06)
(0 -0 -2.474031831e-06)
(0 -0 -3.029668394e-06)
(0 -0 -3.580138202e-06)
(0 -0 -4.120792218e-06)
(0 -0 -4.647003744e-06)
(0 -0 -5.154276197e-06)
(0 -0 -5.638336614e-06)
(0 -0 -6.095203092e-06)
(0 -0 -6.521228707e-06)
(0 -0 -6.913129706e-06)
(0 -0 -7.268004896e-06)
(0 -0 -7.58335027e-06)
(0 -0 -7.857070893e-06)
(0 -0 -8.087491493e-06)
(0 -0 -8.273365512e-06)
(0 -0 -8.413880528e-06)
(0 -0 -8.508657325e-06)
(0 -0 -8.557742907e-06)
(0 -0 -8.561601179e-06)
(0 -0 -8.521104969e-06)
(0 -0 -8.437530488e-06)
(0 -0 -8.312549834e-06)
(0 -0 -8.148214577e-06)
(0 -0 -7.946925291e-06)
(0 -0 -7.711385926e-06)
(0 -0 -7.444545844e-06)
(0 -0 -7.14954028e-06)
(0 -0 -6.829635785e-06)
(0 -0 -6.488180472e-06)
(0 -0 -6.128558089e-06)
(0 -0 2.486047811e-06)
(0 -0 2.6206245e-06)
(0 -0 2.71694742e-06)
(0 -0 2.759590358e-06)
(0 -0 2.744823955e-06)
(0 -0 2.672080082e-06)
(0 -0 2.542538388e-06)
(0 -0 2.3579169e-06)
(0 -0 2.120053652e-06)
(0 -0 1.83106539e-06)
(0 -0 1.493653717e-06)
(0 -0 1.111222234e-06)
(0 -0 6.877372857e-07)
(0 -0 2.274916009e-07)
(0 -0 -2.650629225e-07)
(0 -0 -7.853635598e-07)
(0 -0 -1.328743276e-06)
(0 -0 -1.890445775e-06)
(0 -0 -2.465659949e-06)
(0 -0 -3.049544206e-06)
(0 -0 -3.637221518e-06)
(0 -0 -4.223758581e-06)
(0 -0 -4.804165116e-06)
(0 -0 -5.373434039e-06)
(0 -0 -5.926617251e-06)
(0 -0 -6.458917244e-06)
(0 -0 -6.965773008e-06)
(0 -0 -7.442928988e-06)
(0 -0 -7.886485565e-06)
(0 -0 -8.292933699e-06)
(0 -0 -8.659178266e-06)
(0 -0 -8.982555003e-06)
(0 -0 -9.260843986e-06)
(0 -0 -9.492280962e-06)
(0 -0 -9.675566647e-06)
(0 -0 -9.809872309e-06)
(0 -0 -9.894838673e-06)
(0 -0 -9.930569195e-06)
(0 -0 -9.917621909e-06)
(0 -0 -9.857004966e-06)
(0 -0 -9.75017481e-06)
(0 -0 -9.599029172e-06)
(0 -0 -9.405884924e-06)
(0 -0 -9.173438773e-06)
(0 -0 -8.904713994e-06)
(0 -0 -8.602998444e-06)
(0 -0 -8.2717801e-06)
(0 -0 -7.914685887e-06)
(0 -0 -7.535423219e-06)
(0 -0 -7.137724314e-06)
(0 -0 1.836508543e-06)
(0 -0 1.979685258e-06)
(0 -0 2.082559465e-06)
(0 -0 2.128716275e-06)
(0 -0 2.114214454e-06)
(0 -0 2.038454611e-06)
(0 -0 1.902613416e-06)
(0 -0 1.708394923e-06)
(0 -0 1.457702299e-06)
(0 -0 1.152907328e-06)
(0 -0 7.971388845e-07)
(0 -0 3.942277339e-07)
(0 -0 -5.160938593e-08)
(0 -0 -5.360367377e-07)
(0 -0 -1.054635506e-06)
(0 -0 -1.602773791e-06)
(0 -0 -2.175507564e-06)
(0 -0 -2.767629463e-06)
(0 -0 -3.373813658e-06)
(0 -0 -3.988738332e-06)
(0 -0 -4.607119219e-06)
(0 -0 -5.223676412e-06)
(0 -0 -5.833101848e-06)
(0 -0 -6.430075056e-06)
(0 -0 -7.009330998e-06)
(0 -0 -7.565754943e-06)
(0 -0 -8.094476913e-06)
(0 -0 -8.590949757e-06)
(0 -0 -9.05100668e-06)
(0 -0 -9.470900228e-06)
(0 -0 -9.847327957e-06)
(0 -0 -1.017745093e-05)
(0 -0 -1.045890958e-05)
(0 -0 -1.068983733e-05)
(0 -0 -1.086887025e-05)
(0 -0 -1.099515122e-05)
(0 -0 -1.106832873e-05)
(0 -0 -1.108855312e-05)
(0 -0 -1.10564735e-05)
(0 -0 -1.097323668e-05)
(0 -0 -1.08404857e-05)
(0 -0 -1.066035099e-05)
(0 -0 -1.043542416e-05)
(0 -0 -1.016871318e-05)
(0 -0 -9.863583415e-06)
(0 -0 -9.523690043e-06)
(0 -0 -9.152905724e-06)
(0 -0 -8.755246002e-06)
(0 -0 -8.334798789e-06)
(0 -0 -7.895675146e-06)
(0 -0 1.358957699e-06)
(0 -0 1.510919349e-06)
(0 -0 1.620543265e-06)
(0 -0 1.670441129e-06)
(0 -0 1.656449145e-06)
(0 -0 1.577907813e-06)
(0 -0 1.43598136e-06)
(0 -0 1.232431547e-06)
(0 -0 9.693714917e-07)
(0 -0 6.495164526e-07)
(0 -0 2.763168006e-07)
(0 -0 -1.462393147e-07)
(0 -0 -6.13936761e-07)
(0 -0 -1.12245587e-06)
(0 -0 -1.667234016e-06)
(0 -0 -2.243281284e-06)
(0 -0 -2.845164719e-06)
(0 -0 -3.467180667e-06)
(0 -0 -4.10357702e-06)
(0 -0 -4.748682184e-06)
(0 -0 -5.396902239e-06)
(0 -0 -6.042650794e-06)
(0 -0 -6.680298025e-06)
(0 -0 -7.304186249e-06)
(0 -0 -7.908707957e-06)
(0 -0 -8.488411861e-06)
(0 -0 -9.038106193e-06)
(0 -0 -9.552942638e-06)
(0 -0 -1.002847737e-05)
(0 -0 -1.046071291e-05)
(0 -0 -1.08461264e-05)
(0 -0 -1.118169045e-05)
(0 -0 -1.146489123e-05)
(0 -0 -1.169374426e-05)
(0 -0 -1.186680495e-05)
(0 -0 -1.198317224e-05)
(0 -0 -1.20424888e-05)
(0 -0 -1.204494106e-05)
(0 -0 -1.199126168e-05)
(0 -0 -1.188273247e-05)
(0 -0 -1.172118299e-05)
(0 -0 -1.150897877e-05)
(0 -0 -1.124899367e-05)
(0 -0 -1.094456418e-05)
(0 -0 -1.059942616e-05)
(0 -0 -1.021764184e-05)
(0 -0 -9.803509396e-06)
(0 -0 -9.361455599e-06)
(0 -0 -8.89596468e-06)
(0 -0 -8.411597188e-06)
(0 -0 1.042217814e-06)
(0 -0 1.203063233e-06)
(0 -0 1.319558378e-06)
(0 -0 1.373350869e-06)
(0 -0 1.360035741e-06)
(0 -0 1.278888455e-06)
(0 -0 1.131114692e-06)
(0 -0 9.186369117e-07)
(0 -0 6.438246553e-07)
(0 -0 3.096298542e-07)
(0 -0 -8.039348517e-08)
(0 -0 -5.222634258e-07)
(0 -0 -1.011747006e-06)
(0 -0 -1.544340224e-06)
(0 -0 -2.115109972e-06)
(0 -0 -2.718602286e-06)
(0 -0 -3.348935882e-06)
(0 -0 -4.000027373e-06)
(0 -0 -4.66580433e-06)
(0 -0 -5.340296267e-06)
(0 -0 -6.017600948e-06)
(0 -0 -6.691802906e-06)
(0 -0 -7.356925946e-06)
(0 -0 -8.006957783e-06)
(0 -0 -8.635937709e-06)
(0 -0 -9.238070941e-06)
(0 -0 -9.807837559e-06)
(0 -0 -1.03400802e-05)
(0 -0 -1.083006773e-05)
(0 -0 -1.127353985e-05)
(0 -0 -1.166673913e-05)
(0 -0 -1.200643521e-05)
(0 -0 -1.228994458e-05)
(0 -0 -1.251514714e-05)
(0 -0 -1.268049798e-05)
(0 -0 -1.278503369e-05)
(0 -0 -1.282837469e-05)
(0 -0 -1.281072856e-05)
(0 -0 -1.273289704e-05)
(0 -0 -1.259628357e-05)
(0 -0 -1.240289384e-05)
(0 -0 -1.215532393e-05)
(0 -0 -1.18567351e-05)
(0 -0 -1.151081093e-05)
(0 -0 -1.112168904e-05)
(0 -0 -1.069389908e-05)
(0 -0 -1.023220563e-05)
(0 -0 -9.741534373e-06)
(0 -0 -9.226944189e-06)
(0 -0 -8.693322981e-06)
(0 -0 8.766620073e-07)
(0 -0 1.046358973e-06)
(0 -0 1.169748237e-06)
(0 -0 1.227515162e-06)
(0 -0 1.215007939e-06)
(0 -0 1.131453785e-06)
(0 -0 9.78135363e-07)
(0 -0 7.571421515e-07)