/*--------------------------------*- C++ -*----------------------------------*\
| =========                 |                                                 |
| \\      /  F ield         | foam-extend: Open Source CFD                    |
|  \\    /   O peration     | Version:     4.1                                |
|   \\  /    A nd           | Web:         http://www.foam-extend.org         |
|    \\/     M anipulation  |                                                 |
\*---------------------------------------------------------------------------*/
FoamFile
{
    version     2.0;
    format      ascii;
    class       volScalarField;
    location    "140000";
    object      p;
}
// * * * * * * * * * * * * * * * * * * * * * * * * * * * * * * * * * * * * * //

dimensions      [0 2 -2 0 0 0 0];

internalField   nonuniform List<scalar> 
15920
(
1.878030929e-08
1.595525364e-08
1.376373459e-08
1.264503173e-08
1.184668935e-08
1.10226345e-08
1.022025247e-08
9.51736687e-09
8.917309389e-09
8.398424959e-09
7.949753544e-09
7.567921344e-09
7.24797468e-09
6.981934911e-09
6.760889978e-09
6.576318287e-09
6.420372312e-09
6.285960669e-09
6.166888697e-09
6.057952549e-09
5.954928568e-09
5.854491932e-09
5.754107764e-09
5.651914377e-09
5.546607574e-09
5.437334945e-09
5.323600476e-09
5.205181757e-09
5.082061469e-09
4.954372477e-09
4.82235482e-09
4.686322857e-09
4.546641027e-09
4.40370665e-09
4.25793826e-09
4.109768078e-09
3.959637536e-09
3.807995071e-09
3.655295673e-09
3.502001543e-09
3.348582974e-09
3.195518844e-09
3.043296677e-09
2.892412562e-09
2.743370954e-09
2.596684121e-09
2.45287099e-09
2.312455317e-09
2.175963272e-09
2.043920494e-09
1.34791543e-08
1.31285908e-08
1.256070276e-08
1.203212269e-08
1.152070853e-08
1.094544278e-08
1.033183413e-08
9.735283901e-09
9.181556794e-09
8.676807221e-09
8.224917549e-09
7.829460572e-09
7.490146534e-09
7.202414519e-09
6.959336154e-09
6.753393307e-09
6.577279574e-09
6.424210224e-09
6.288135537e-09
6.163884837e-09
6.04719937e-09
5.934678337e-09
5.82368817e-09
5.712249325e-09
5.598916159e-09
5.482693895e-09
5.362951526e-09
5.239341113e-09
5.111730546e-09
4.980149539e-09
4.844746985e-09
4.705758046e-09
4.563479428e-09
4.418251433e-09
4.270445458e-09
4.120455676e-09
3.968693699e-09
3.815585151e-09
3.66156759e-09
3.507089569e-09
3.352610518e-09
3.198600827e-09
3.045541711e-09
2.893924861e-09
2.744251928e-09
2.597033732e-09
2.452788902e-09
2.312041684e-09
2.175318958e-09
2.043146705e-09
1.295622256e-08
1.279312663e-08
1.235112916e-08
1.179139666e-08
1.125096475e-08
1.073280612e-08
1.021735748e-08
9.716130928e-09
9.246369363e-09
8.814540928e-09
8.421075159e-09
8.06604839e-09
7.74910812e-09
7.468177416e-09
7.219820212e-09
7.000028471e-09
6.804646324e-09
6.629512983e-09
6.470591287e-09
6.324121531e-09
6.186738568e-09
6.055526993e-09
5.928030208e-09
5.802252068e-09
5.676640701e-09
5.550011984e-09
5.421493187e-09
5.29047906e-09
5.156589015e-09
5.019625836e-09
4.879539097e-09
4.736394549e-09
4.590349155e-09
4.441631139e-09
4.290524409e-09
4.137356677e-09
3.982490628e-09
3.826317473e-09
3.669252455e-09
3.511731909e-09
3.354211427e-09
3.197164563e-09
3.041081592e-09
2.886468066e-09
2.733843114e-09
2.583737566e-09
2.436691768e-09
2.293252417e-09
2.153969454e-09
2.019391935e-09
1.196598462e-08
1.182314159e-08
1.153910992e-08
1.117875216e-08
1.080230676e-08
1.042139595e-08
1.002977862e-08
9.634437168e-09
9.24992746e-09
8.885590484e-09
8.544758971e-09
8.228854106e-09
7.938800439e-09
7.674442796e-09
7.434374622e-09
7.216351654e-09
7.017702109e-09
6.835559722e-09
6.667012973e-09
6.509244093e-09
6.359645281e-09
6.215891014e-09
6.075971248e-09
5.93820018e-09
5.801202944e-09
5.663883319e-09
5.525394417e-09
5.385112138e-09
5.242606328e-09
5.097610914e-09
4.949996467e-09
4.799746622e-09
4.646938359e-09
4.491725782e-09
4.334327041e-09
4.175014017e-09
4.01410439e-09
3.85195554e-09
3.688959959e-09
3.525541802e-09
3.362154106e-09
3.199276342e-09
3.037412164e-09
2.87708715e-09
2.718846177e-09
2.563250297e-09
2.410873491e-09
2.262299682e-09
2.118117966e-09
1.978917216e-09
1.133272005e-08
1.126182407e-08
1.109008096e-08
1.08387437e-08
1.054596038e-08
1.023325469e-08
9.907364321e-09
9.574873377e-09
9.245430947e-09
8.926982837e-09
8.623797829e-09
8.337997155e-09
8.070824883e-09
7.82268622e-09
7.592995295e-09
7.38038354e-09
7.183034294e-09
6.998914722e-09
6.825908593e-09
6.66191717e-09
6.504946156e-09
6.353167942e-09
6.20495609e-09
6.058899343e-09
5.913802576e-09
5.768678617e-09
5.622734457e-09
5.475355023e-09
5.326085098e-09
5.174610514e-09
5.020740378e-09
4.864391089e-09
4.70557233e-09
4.544375072e-09
4.380961529e-09
4.21555693e-09
4.04844276e-09
3.879951292e-09
3.710461199e-09
3.540393966e-09
3.3702106e-09
3.200408441e-09
3.031518108e-09
2.864100452e-09
2.698743227e-09
2.536057071e-09
2.376670812e-09
2.221226548e-09
2.070374087e-09
1.924764671e-09
1.085165593e-08
1.080143074e-08
1.067575823e-08
1.048466151e-08
1.025445893e-08
1.000319241e-08
9.738217088e-09
9.464391791e-09
9.188081099e-09
8.915534457e-09
8.651047599e-09
8.397129028e-09
8.155292524e-09
7.926345358e-09
7.710367423e-09
7.506794368e-09
7.314616705e-09
7.132557033e-09
6.959185497e-09
6.793004864e-09
6.632525253e-09
6.476325041e-09
6.323092793e-09
6.171652383e-09
6.020976057e-09
5.870188311e-09
5.718562775e-09
5.565514828e-09
5.410592238e-09
5.253464695e-09
5.09391285e-09
4.931817689e-09
4.767150756e-09
4.599965417e-09
4.430389456e-09
4.258619017e-09
4.08491354e-09
3.909591168e-09
3.733025004e-09
3.555640125e-09
3.3779106e-09
3.200356382e-09
3.023540013e-09
2.848062863e-09
2.674561118e-09
2.503701471e-09
2.336175785e-09
2.172694503e-09
2.013979416e-09
1.860756345e-09
1.047524007e-08
1.043727888e-08
1.034341831e-08
1.019890292e-08
1.002000273e-08
9.818956548e-09
9.602006326e-09
9.37367207e-09
9.139133172e-09
8.903540024e-09
8.670844756e-09
8.44365808e-09
8.223682134e-09
8.011988394e-09
7.809065063e-09
7.614859467e-09
7.428895731e-09
7.250408095e-09
7.078444096e-09
6.911941662e-09
6.749794096e-09
6.590904816e-09
6.434228766e-09
6.278800581e-09
6.123752212e-09
5.968322602e-09
5.811861428e-09
5.653828815e-09
5.493792331e-09
5.331422205e-09
5.16648553e-09
4.998840305e-09
4.828429963e-09
4.655277819e-09
4.47948277e-09
4.301215273e-09
4.120714097e-09
3.938283721e-09
3.754292035e-09
3.569167897e-09
3.383398589e-09
3.197527476e-09
3.012151268e-09
2.827915752e-09
2.645510049e-09
2.465661095e-09
2.289128964e-09
2.116700333e-09
1.949179128e-09
1.787376906e-09
1.017918102e-08
1.015002052e-08
1.007769719e-08
9.964809043e-09
9.821937308e-09
9.657662814e-09
9.477154901e-09
9.284482789e-09
9.083888869e-09
8.879465914e-09
8.674533158e-09
8.471494777e-09
8.272039979e-09
8.077320199e-09
7.888008149e-09
7.704334292e-09
7.526162087e-09
7.353082403e-09
7.184495568e-09
7.019675425e-09
6.857822574e-09
6.698110128e-09
6.539720795e-09
6.381874611e-09
6.223848641e-09
6.064990258e-09
5.904725413e-09
5.742563357e-09
5.578098485e-09
5.411010424e-09
5.241062689e-09
5.068099716e-09
4.892045133e-09
4.712899845e-09
4.530743333e-09
4.345729292e-09
4.158082054e-09
3.968096768e-09
3.776141093e-09
3.582653242e-09
3.388138826e-09
3.193169193e-09
2.998379976e-09
2.804467082e-09
2.612181029e-09
2.422319599e-09
2.235720956e-09
2.053257003e-09
1.875824525e-09
1.704333508e-09
9.944966722e-09
9.921748082e-09
9.864062548e-09
9.773341171e-09
9.657047185e-09
9.521322294e-09
9.370077406e-09
9.206566062e-09
9.034153302e-09
8.856086165e-09
8.675109242e-09
8.493349682e-09
8.312398846e-09
8.133408243e-09
7.957136317e-09
7.783980552e-09
7.614027824e-09
7.447118624e-09
7.282908174e-09
7.120917858e-09
6.960579099e-09
6.80127194e-09
6.642357846e-09
6.483205884e-09
6.323212961e-09
6.161818764e-09
5.998516555e-09
5.83286159e-09
5.66447471e-09
5.493045822e-09
5.318339503e-09
5.140194467e-09
4.95851963e-09
4.773290784e-09
4.58457356e-09
4.392508391e-09
4.19730893e-09
3.999264365e-09
3.798744095e-09
3.596198179e-09
3.39215506e-09
3.1872199e-09
2.982071807e-09
2.77746039e-09
2.574201439e-09
2.373171899e-09
2.175301605e-09
1.981562294e-09
1.792957847e-09
1.610511665e-09
9.759881317e-09
9.740932274e-09
9.69385817e-09
9.619500111e-09
9.52334165e-09
9.40980648e-09
9.28173121e-09
9.14162331e-09
8.992164298e-09
8.835972802e-09
8.67531399e-09
8.512015963e-09
8.347509963e-09
8.182880551e-09
8.018893849e-09
7.856021019e-09
7.694472874e-09
7.534243933e-09
7.375157139e-09
7.216904149e-09
7.059080858e-09
6.901219568e-09
6.742817016e-09
6.583357768e-09
6.422334003e-09
6.259258982e-09
6.093677905e-09
5.925186979e-09
5.75342946e-09
5.578098604e-09
5.398956176e-09
5.215832285e-09
5.02862249e-09
4.837295478e-09
4.641886526e-09
4.442514786e-09
4.239382664e-09
4.032778476e-09
3.82307659e-09
3.610738565e-09
3.396315661e-09
3.180448859e-09
2.963866715e-09
2.747382723e-09
2.531891503e-09
2.318362035e-09
2.107827649e-09
1.901374828e-09
1.700129739e-09
1.505244971e-09
9.614862217e-09
9.599105591e-09
9.559957862e-09
9.497909415e-09
9.417125919e-09
9.32087221e-09
9.211206371e-09
9.090037488e-09
8.959487084e-09
8.821656016e-09
8.678388292e-09
8.531213364e-09
8.381372154e-09
8.229841371e-09
8.077344806e-09
7.924366856e-09
7.771175963e-09
7.61785473e-09
7.464331912e-09
7.310413105e-09
7.155808224e-09
7.000158854e-09
6.84305982e-09
6.684078419e-09
6.522781591e-09
6.358740137e-09
6.191519922e-09
6.020756968e-09
5.846103525e-09
5.667263597e-09
5.483984033e-09
5.29606939e-09
5.103394844e-09
4.905910083e-09
4.703633634e-09
4.496662814e-09
4.285184952e-09
4.069480418e-09
3.84992353e-09
3.626987281e-09
3.401247661e-09
3.173384652e-09
2.944181587e-09
2.714523311e-09
2.485391782e-09
2.257858669e-09
2.033075673e-09
1.812262788e-09
1.596693684e-09
1.387678262e-09
9.503141219e-09
9.489825566e-09
9.456737672e-09
9.404155971e-09
9.335342891e-09
9.252768577e-09
9.157927149e-09
9.052249716e-09
8.937393852e-09
8.815032345e-09
8.686654927e-09
8.553523864e-09
8.416691973e-09
8.277012735e-09
8.135140443e-09
7.991535532e-09
7.846480019e-09
7.700097971e-09
7.552377367e-09
7.40319227e-09
7.252322041e-09
7.099484455e-09
6.94434248e-09
6.786500608e-09
6.62558568e-09
6.461195975e-09
6.292959554e-09
6.120479528e-09
5.943410765e-09
5.761445148e-09
5.574316836e-09
5.381810099e-09
5.183771313e-09
4.980116483e-09
4.770834665e-09
4.555997878e-09
4.33577094e-09
4.110417902e-09
3.880308371e-09
3.645924009e-09
3.407863775e-09
3.166847258e-09
2.923715807e-09
2.679431348e-09
2.435072865e-09
2.191829988e-09
1.950992835e-09
1.713938273e-09
1.482113933e-09
1.257020752e-09
9.419544327e-09
9.408137977e-09
9.379790614e-09
9.334648219e-09
9.275327432e-09
9.203734465e-09
9.120953758e-09
9.028048006e-09
8.926304948e-09
8.817052042e-09
8.701486423e-09
8.580637999e-09
8.455382781e-09
8.326446123e-09
8.194397581e-09
8.05964919e-09
7.922464359e-09
7.782974632e-09
7.641198675e-09
7.49704407e-09
7.350307581e-09
7.200765437e-09
7.048111266e-09
6.892021101e-09
6.732102507e-09
6.567974082e-09
6.399254131e-09
6.225561606e-09
6.046535266e-09
5.86184153e-09
5.671184207e-09
5.474312972e-09
5.271032844e-09
5.061215249e-09
4.84480791e-09
4.621844857e-09
4.392457428e-09
4.156884939e-09
3.915484162e-09
3.668737949e-09
3.417263232e-09
3.16181739e-09
2.903301836e-09
2.642762402e-09
2.381386625e-09
2.120497614e-09
1.861543584e-09
1.606082634e-09
1.355763695e-09
1.112304171e-09
9.360029665e-09
9.350149334e-09
9.325586913e-09
9.286403452e-09
9.234740229e-09
9.172094518e-09
9.09925332e-09
9.01700029e-09
8.926331256e-09
8.82829514e-09
8.723847106e-09
8.613817242e-09
8.498920821e-09
8.379757302e-09
8.256808464e-09
8.130426212e-09
8.000837306e-09
7.868143671e-09
7.732376897e-09
7.593443709e-09
7.451200449e-09
7.305391665e-09
7.155732194e-09
7.00189452e-09
6.84351103e-09
6.680194468e-09
6.511547129e-09
6.337169744e-09
6.156671037e-09
5.969678523e-09
5.77584968e-09
5.5748825e-09
5.366526451e-09
5.150595205e-09
4.926979323e-09
4.695658841e-09
4.456716897e-09
4.21035358e-09
3.956899182e-09
3.696826651e-09
3.430762846e-09
3.159498053e-09
2.883993038e-09
2.605382405e-09
2.324973242e-09
2.044239159e-09
1.764809599e-09
1.488453412e-09
1.217056104e-09
9.525914255e-10
9.321371408e-09
9.312740127e-09
9.291261097e-09
9.256940754e-09
9.211563284e-09
9.156323901e-09
9.091792698e-09
9.018544433e-09
8.937341442e-09
8.849007306e-09
8.754299868e-09
8.653881566e-09
8.548328142e-09
8.438111066e-09
8.323632594e-09
8.205175591e-09
8.082922801e-09
7.956969127e-09
7.827283248e-09
7.693781033e-09
7.556300452e-09
7.414600233e-09
7.268387148e-09
7.117321742e-09
6.961025494e-09
6.799090529e-09
6.631089393e-09
6.456584613e-09
6.275138632e-09
6.086324415e-09
5.88973698e-09
5.685005474e-09
5.471805923e-09
5.249875449e-09
5.019027519e-09
4.779167762e-09
4.530310678e-09
4.272597156e-09
4.006312289e-09
3.731902615e-09
3.449991828e-09
3.161394404e-09
2.867126716e-09
2.568414417e-09
2.266694256e-09
1.963609367e-09
1.660997945e-09
1.360874732e-09
1.065404379e-09
7.768671953e-10
9.300941071e-09
9.293343807e-09
9.274424188e-09
9.244153512e-09
9.204033939e-09
9.155029897e-09
9.097550722e-09
9.032029305e-09
8.959029539e-09
8.879196877e-09
8.793127275e-09
8.70134003e-09
8.604283816e-09
8.502354676e-09
8.395841496e-09
8.284964084e-09
8.169853564e-09
8.050552809e-09
7.92701763e-09
7.799136117e-09
7.666722825e-09
7.529522803e-09
7.387222536e-09
7.239457715e-09
7.085820321e-09
6.92586614e-09
6.759122872e-09
6.585099393e-09
6.403295574e-09
6.213212611e-09
6.014364748e-09
5.806292409e-09
5.588576552e-09
5.360854664e-09
5.12283853e-09
4.874333529e-09
4.615259338e-09
4.345671845e-09
4.065785816e-09
3.775997713e-09
3.476907735e-09
3.169339716e-09
2.854357648e-09
2.533277887e-09
2.207675472e-09
1.879382388e-09
1.550476372e-09
1.22325971e-09
9.002281013e-10
5.840299136e-10
9.296667623e-09
9.289895279e-09
9.273116717e-09
9.246278543e-09
9.210641747e-09
9.166989368e-09
9.115613583e-09
9.056788519e-09
8.990987741e-09
8.918710887e-09
8.840411658e-09
8.756485199e-09
8.667277545e-09
8.573081892e-09
8.474120658e-09
8.37054494e-09
8.262429757e-09
8.149774297e-09
8.032503312e-09
7.910468374e-09
7.783452007e-09
7.65117037e-09
7.513278576e-09
7.369376085e-09
7.219012334e-09
7.061693065e-09
6.8968873e-09
6.724035309e-09
6.542557573e-09
6.351864975e-09
6.151370729e-09
5.940504192e-09
5.718726542e-09
5.485548558e-09
5.240550868e-09
4.983406821e-09
4.713907875e-09
4.431990926e-09
4.137766901e-09
3.831550234e-09
3.513888685e-09
3.185591804e-09
2.847755663e-09
2.501782149e-09
2.149391106e-09
1.792622835e-09
1.433828437e-09
1.075646892e-09
7.209687382e-10
3.728863494e-10
9.306532675e-09
9.300507413e-09
9.285590197e-09
9.26171714e-09
9.229965254e-09
9.190975686e-09
9.144950631e-09
9.092090425e-09
9.032739378e-09
8.96728359e-09
8.896070166e-09
8.819396619e-09
8.737519249e-09
8.65064902e-09
8.558939958e-09
8.462482057e-09
8.361297779e-09
8.255340708e-09
8.144494619e-09
8.028573205e-09
7.907321908e-09
7.780419476e-09
7.647480482e-09
7.508058555e-09
7.361650293e-09
7.207699927e-09
7.045604745e-09
6.874721671e-09
6.694375294e-09
6.503867516e-09
6.302489162e-09
6.089533985e-09
5.864315334e-09
5.626185721e-09
5.374559645e-09
5.108940077e-09
4.828948662e-09
4.534359266e-09
4.225134252e-09
3.901462791e-09
3.563800287e-09
3.21290738e-09
2.849886024e-09
2.476209583e-09
2.0937439e-09
1.704756184e-09
1.311908743e-09
9.182356842e-10
5.271008231e-10
1.421360954e-10
9.329025043e-09
9.323673497e-09
9.310402907e-09
9.289142535e-09
9.260824833e-09
9.225981235e-09
9.184747262e-09
9.137256105e-09
9.083761483e-09
9.024556651e-09
8.959903201e-09
8.890019085e-09
8.815085442e-09
8.735243954e-09
8.650586865e-09
8.561148987e-09
8.466903342e-09
8.367758596e-09
8.263556914e-09
8.15407239e-09
8.039010366e-09
7.91800729e-09
7.790631281e-09
7.656383348e-09
7.514699241e-09
7.364952131e-09
7.206456305e-09
7.038472152e-09
6.860212754e-09
6.670852379e-09
6.469537262e-09
6.255399234e-09
6.027572743e-09
5.785215858e-09
5.527535701e-09
5.253818631e-09
4.963465399e-09
4.656031442e-09
4.331272303e-09
3.98919327e-09
3.630101483e-09
3.254658726e-09
2.863932345e-09
2.45944034e-09
2.043186122e-09
1.617678547e-09
1.185932797e-09
7.514478824e-10
3.181580481e-10
-1.096430531e-10
9.362769126e-09
9.358017034e-09
9.346220655e-09
9.327305248e-09
9.30207991e-09
9.270987692e-09
9.234114478e-09
9.191541779e-09
9.143455566e-09
9.090075872e-09
9.031594105e-09
8.968162678e-09
8.899901005e-09
8.826892979e-09
8.749177811e-09
8.666742003e-09
8.579514282e-09
8.487361983e-09
8.390087691e-09
8.287426203e-09
8.179042112e-09
8.064527891e-09
7.943402432e-09
7.815110087e-09
7.679020378e-09
7.534428572e-09
7.380557256e-09
7.216559146e-09
7.041521559e-09
6.854473064e-09
6.654392825e-09
6.440223157e-09
6.210886094e-09
5.965304965e-09
5.702431768e-09
5.421280866e-09
5.120969471e-09
4.800765566e-09
4.460143625e-09
4.098847456e-09
3.716958415e-09
3.314966768e-09
2.893842916e-09
2.455103573e-09
2.000866914e-09
1.533890705e-09
1.05758624e-09
5.760002498e-10
9.375986634e-11
-3.840209731e-10
9.406512262e-09
9.402303082e-09
9.391849975e-09
9.375077563e-09
9.352686741e-09
9.325047966e-09
9.292211259e-09
9.254220211e-09
9.2112087e-09
9.163338947e-09
9.110746521e-09
9.053531551e-09
8.991763869e-09
8.925480391e-09
8.854676475e-09
8.779297957e-09
8.699235546e-09
8.614320289e-09
8.524319128e-09
8.42893055e-09
8.32778055e-09
8.220418835e-09
8.106315282e-09
7.984856766e-09
7.85534453e-09
7.716992265e-09
7.568925058e-09
7.410179445e-09
7.239705063e-09
7.056368526e-09
6.858960267e-09
6.646205054e-09
6.416777115e-09
6.169321098e-09
5.902480091e-09
5.614931852e-09
5.305434465e-09
4.972882588e-09
4.616374735e-09
4.235291429e-09
3.82938307e-09
3.39886511e-09
2.944516784e-09
2.467777675e-09
1.970834083e-09
1.456685532e-09
9.291805721e-10
3.930104579e-10
-1.463490941e-10
-6.827539844e-10
9.459113668e-09
9.455406658e-09
9.446198985e-09
9.431417811e-09
9.411668243e-09
9.387260039e-09
9.358217885e-09
9.32455868e-09
9.286376849e-09
9.243789889e-09
9.196890148e-09
9.145737302e-09
9.090362737e-09
9.030766717e-09
8.966910094e-09
8.898706378e-09
8.826015709e-09
8.748639513e-09
8.666315088e-09
8.578709975e-09
8.485416304e-09
8.385945116e-09
8.279720706e-09
8.166075116e-09
8.044242894e-09
7.913356229e-09
7.772440669e-09
7.620411753e-09
7.456073029e-09
7.278116088e-09
7.085123484e-09
6.875575668e-09
6.64786312e-09
6.400305022e-09
6.131176183e-09
5.838744235e-09
5.521319326e-09
5.17731807e-09
4.805342813e-09
4.404277202e-09
3.973398001e-09
3.512500738e-09
3.022035099e-09
2.503243902e-09
1.958295786e-09
1.390396729e-09
8.038639193e-10
2.041441757e-10
-4.022412934e-10
-1.007838939e-09
9.519516428e-09
9.516281423e-09
9.508245418e-09
9.495340561e-09
9.478086291e-09
9.456741305e-09
9.431313648e-09
9.401802948e-09
9.368274659e-09
9.33081253e-09
9.289476654e-09
9.244296945e-09
9.195276629e-09
9.142389197e-09
9.085570408e-09
9.024710402e-09
8.959647273e-09
8.890161014e-09
8.815967156e-09
8.736709919e-09
8.651954966e-09
8.561181845e-09
8.463776166e-09
8.359021599e-09
8.246091743e-09
8.124041887e-09
7.991800873e-09
7.848163463e-09
7.691783714e-09
7.521169939e-09
7.334682148e-09
7.130533342e-09
6.906796268e-09
6.66141732e-09
6.392239821e-09
6.097039668e-09
5.773576568e-09
5.419663667e-09
5.033257951e-09
4.612574089e-09
4.156223639e-09
3.663378903e-09
3.133957418e-09
2.568820036e-09
1.969970375e-09
1.340736514e-09
6.85910221e-10
1.181427841e-11
-6.73734914e-10
-1.361595915e-09
9.586726294e-09
9.583940612e-09
9.577020529e-09
9.565905158e-09
9.551036496e-09
9.532630033e-09
9.510684183e-09
9.485188973e-09
9.456189725e-09
9.423745988e-09
9.387895407e-09
9.348647938e-09
9.305988391e-09
9.25987316e-09
9.210222481e-09
9.156912628e-09
9.099769132e-09
9.038560114e-09
8.972989006e-09
8.902686514e-09
8.827201863e-09
8.745993409e-09
8.658418659e-09
8.56372363e-09
8.461031509e-09
8.34933062e-09
8.227461893e-09
8.094106125e-09
7.947771492e-09
7.786781926e-09
7.609267233e-09
7.413156379e-09
7.196175795e-09
6.955855009e-09
6.689542586e-09
6.394436029e-09
6.067629794e-09
5.706186219e-09
5.307234452e-09
4.868101975e-09
4.386483096e-09
3.860647383e-09
3.289686924e-09
2.67379533e-09
2.014564142e-09
1.315273011e-09
5.811380102e-10
-1.805287262e-10
-9.603030771e-10
-1.746831648e-09
9.659796633e-09
9.657442982e-09
9.651596156e-09
9.642203811e-09
9.629637063e-09
9.614074611e-09
9.595511161e-09
9.573933763e-09
9.549375321e-09
9.521879629e-09
9.491470677e-09
9.458147453e-09
9.421885594e-09
9.382633838e-09
9.340306572e-09
9.294776151e-09
9.245865884e-09
9.193342812e-09
9.136909596e-09
9.076195364e-09
9.010745596e-09
8.940011033e-09
8.86333555e-09
8.77994279e-09
8.688921403e-09
8.589208915e-09
8.479574327e-09
8.358599482e-09
8.224659458e-09
8.075902663e-09
7.910231526e-09
7.725285023e-09
7.518424868e-09
7.286728299e-09
7.026991266e-09
6.735746369e-09
6.409300488e-09
6.043799241e-09
5.635327252e-09
5.180052689e-09
4.674424342e-09
4.115429393e-09
3.500916656e-09
2.829981976e-09
2.103402731e-09
1.324093312e-09
4.975314443e-10
-3.679152155e-10
-1.260850156e-09
-2.166999302e-09
9.737817508e-09
9.735882232e-09
9.731074839e-09
9.723352813e-09
9.713021794e-09
9.700229064e-09
9.684970693e-09
9.667236493e-09
9.647053699e-09
9.624457834e-09
9.59946721e-09
9.57207823e-09
9.542266111e-09
9.509981155e-09
9.475141626e-09
9.437626297e-09
9.397267295e-09
9.353842423e-09
9.307066337e-09
9.256580491e-09
9.201941884e-09
9.142610462e-09
9.077934901e-09
9.00713652e-09
8.92929111e-09
8.843308596e-09
8.747910396e-09
8.641604218e-09
8.522656295e-09
8.389061534e-09
8.238512421e-09
8.068367719e-09
7.87562262e-09
7.65688314e-09
7.40834903e-09
7.125810425e-09
6.804664852e-09
6.439963852e-09
6.026501642e-09
5.558960134e-09
5.032125737e-09
4.441194493e-09
3.782180544e-09
3.052435905e-09
2.251276871e-09
1.380689479e-09
4.460501346e-10
-5.432479069e-10
-1.573413822e-09
-2.626305663e-09
9.819908121e-09
9.818379763e-09
9.814583308e-09
9.80848715e-09
9.800336021e-09
9.79025037e-09
9.778231991e-09
9.76427846e-09
9.748417271e-09
9.730682402e-09
9.711093731e-09
9.689652819e-09
9.666342757e-09
9.641124325e-09
9.613929335e-09
9.584653513e-09
9.553149318e-09
9.519217962e-09
9.482600104e-09
9.442965176e-09
9.399899276e-09
9.352891315e-09
9.301316962e-09
9.244420089e-09
9.181291418e-09
9.110844047e-09
9.031785398e-09
8.942585083e-09
8.841438381e-09
8.726225221e-09
8.594464997e-09
8.443268089e-09
8.26928555e-09
8.068659199e-09
7.836975468e-09
7.569228536e-09
7.259801729e-09
6.902478636e-09
6.490499443e-09
6.016683707e-09
5.473645243e-09
4.854128298e-09
4.151496581e-09
3.360405122e-09
2.477672031e-09
1.50334301e-09
4.418947736e-10
-6.965633985e-10
-1.895355801e-09
-3.130981733e-09
9.905212186e-09
9.904080272e-09
9.901268639e-09
9.89675749e-09
9.890734642e-09
9.883297681e-09
9.874457873e-09
9.864224902e-09
9.852631741e-09
9.839716774e-09
9.825507985e-09
9.810019197e-09
9.793249137e-09
9.77517762e-09
9.755759462e-09
9.734917834e-09
9.712537193e-09
9.688455246e-09
9.662453532e-09
9.634246479e-09
9.603468749e-09
9.569660465e-09
9.532249787e-09
9.490532441e-09
9.443647756e-09
9.390550471e-09
9.329977446e-09
9.260408606e-09
9.180021492e-09
9.086638614e-09
8.977666921e-09
8.850029405e-09
8.70008965e-09
8.523570646e-09
8.315469877e-09
8.06997555e-09
7.780393302e-09
7.439096256e-09
7.037517e-09
6.566209558e-09
6.015019964e-09
5.373413502e-09
4.631016955e-09
3.778440539e-09
2.80843321e-09
1.717405403e-09
5.073045086e-10
-8.122378054e-10
-2.221764487e-09
-3.690522744e-09
9.992895765e-09
9.992149767e-09
9.990296738e-09
9.987329385e-09
9.983382241e-09
9.978533495e-09
9.972807073e-09
9.966228452e-09
9.958840615e-09
9.950691565e-09
9.941823201e-09
9.93226802e-09
9.922047528e-09
9.911168584e-09
9.899618016e-09
9.887356582e-09
9.874312225e-09
9.860372283e-09
9.845374341e-09
9.829095474e-09
9.811239508e-09
9.791421859e-09
9.769151371e-09
9.743808686e-09
9.714620459e-09
9.680628344e-09
9.64065148e-09
9.593241295e-09
9.536627517e-09
9.468654032e-09
9.386702958e-09
9.287605356e-09
9.167537421e-09
9.021901726e-09
8.845193862e-09
8.630856994e-09
8.371131161e-09
8.056909772e-09
7.677622501e-09
7.221176484e-09
6.674006294e-09
6.02130563e-09
5.247541453e-09
4.337381806e-09
3.277177089e-09
2.057117363e-09
6.740598111e-10
-8.65042536e-10
-2.539440799e-09
-4.310807466e-09
1.008214733e-08
1.00817758e-08
1.008085296e-08
1.007938452e-08
1.007745513e-08
1.007512663e-08
1.007243821e-08
1.006943418e-08
1.006617134e-08
1.006271179e-08
1.005911636e-08
1.005544188e-08
1.005173903e-08
1.004804895e-08
1.004439868e-08
1.004079597e-08
1.00372231e-08
1.003362973e-08
1.002992437e-08
1.002596424e-08
1.002154309e-08
1.001637633e-08
1.001008316e-08
1.000216473e-08
9.99197759e-09
9.978701046e-09
9.961297012e-09
9.93846066e-09
9.90855974e-09
9.869560407e-09
9.81893707e-09
9.753563011e-09
9.669577755e-09
9.562227521e-09
9.425676296e-09
9.252785883e-09
9.034865244e-09
8.761395864e-09
8.419749527e-09
7.994927762e-09
7.469373756e-09
6.822946352e-09
6.033193284e-09
5.076148415e-09
3.927965434e-09
2.567878941e-09
9.827674635e-10
-8.264423926e-10
-2.838153147e-09
-5.004064444e-09
1.017217955e-08
1.017216947e-08
1.017214453e-08
1.017212371e-08
1.017214505e-08
1.017225677e-08
1.01725153e-08
1.017298616e-08
1.017374304e-08
1.017486583e-08
1.017643849e-08
1.01785469e-08
1.018127635e-08
1.01847085e-08
1.018891776e-08
1.019396706e-08
1.01999027e-08
1.020674815e-08
1.021449659e-08
1.022310192e-08
1.023246766e-08
1.024243334e-08
1.025275788e-08
1.026309895e-08
1.027298709e-08
1.028179316e-08
1.028868763e-08
1.029258968e-08
1.029210324e-08
1.028543645e-08
1.027030088e-08
1.024378553e-08
1.020219867e-08
1.014086966e-08
1.005390303e-08
9.933876681e-09
9.771474218e-09
9.555045974e-09
9.270101971e-09
8.898753535e-09
8.419146736e-09
7.80496992e-09
7.025171513e-09
6.044135606e-09
4.822648075e-09
3.320684238e-09
1.502664961e-09
-6.501709695e-10
-3.124156726e-09
-5.847893558e-09
1.026223267e-08
1.026256894e-08
1.026340433e-08
1.026477119e-08
1.026666424e-08
1.026912034e-08
1.027221466e-08
1.027603551e-08
1.028067586e-08
1.028623622e-08
1.029282693e-08
1.03005666e-08
1.030957938e-08
1.031999231e-08
1.03319329e-08
1.0345526e-08
1.036088989e-08
1.037813151e-08
1.039734044e-08
1.041858155e-08
1.044188578e-08
1.046723873e-08
1.049456627e-08
1.052371642e-08
1.055443605e-08
1.058634079e-08
1.06188765e-08
1.065127004e-08
1.068246636e-08
1.071104739e-08
1.073512722e-08
1.075221669e-08
1.075904826e-08
1.075134901e-08
1.072354661e-08
1.066839002e-08
1.057646178e-08
1.043555471e-08
1.02298883e-08
9.939147966e-09
9.537359939e-09
8.991662194e-09
8.261164725e-09
7.296121096e-09
6.037859993e-09
4.420087065e-09
2.370363698e-09
-1.762303393e-10
-3.270766153e-09
-6.84200074e-09
1.035157892e-08
1.035224392e-08
1.035389577e-08
1.035658007e-08
1.036025144e-08
1.036493749e-08
1.037073287e-08
1.037774967e-08
1.038610162e-08
1.039591183e-08
1.040731923e-08
1.042047768e-08
1.043555296e-08
1.045272086e-08
1.047216588e-08
1.049407955e-08
1.051865797e-08
1.054609865e-08
1.057659635e-08
1.061033796e-08
1.064749588e-08
1.068821959e-08
1.073262471e-08
1.078077858e-08
1.083268137e-08
1.088824112e-08
1.094724076e-08
1.100929463e-08
1.107379169e-08
1.113982064e-08
1.120607033e-08
1.127069669e-08
1.133114505e-08
1.138391296e-08
1.14242311e-08
1.144563194e-08
1.143936697e-08
1.139361628e-08
1.129241742e-08
1.111421995e-08
1.082997587e-08
1.040066178e-08
9.77443491e-09
8.883479622e-09
7.642933794e-09
5.950302672e-09
3.693404087e-09
7.592960081e-10
-3.004664653e-09
-7.602014974e-09
1.043952778e-08
1.044050103e-08
1.044291845e-08
1.044683843e-08
1.04521789e-08
1.045895993e-08
1.046729583e-08
1.047732267e-08
1.048917564e-08
1.050300147e-08
1.05189687e-08
1.053726759e-08
1.055810691e-08
1.05817127e-08
1.060832836e-08
1.063821453e-08
1.067164825e-08
1.070892153e-08
1.075033941e-08
1.07962175e-08
1.084687854e-08
1.090264774e-08
1.096384626e-08
1.103078192e-08
1.110373617e-08
1.118294647e-08
1.126858231e-08
1.136071212e-08
1.145925818e-08
1.156393518e-08
1.167416629e-08
1.178896695e-08
1.190678449e-08
1.202527731e-08
1.214100742e-08
1.224900809e-08
1.234217342e-08
1.241038848e-08
1.243927537e-08
1.240835917e-08
1.228837509e-08
1.20371952e-08
1.159401409e-08
1.087005804e-08
9.739745881e-09
8.021561989e-09
5.505604562e-09
1.916548509e-09
-2.905709432e-09
-8.956795137e-09
1.05254317e-08
1.052668975e-08
1.052981439e-08
1.053487623e-08
1.054175993e-08
1.055047948e-08
1.056116841e-08
1.057398617e-08
1.058908932e-08
1.060664818e-08
1.06268608e-08
1.064995353e-08
1.067617781e-08
1.070580964e-08
1.073915106e-08
1.077653161e-08
1.081830914e-08
1.086487035e-08
1.091663133e-08
1.097403793e-08
1.103756585e-08
1.110772026e-08
1.118503443e-08
1.127006672e-08
1.1363395e-08
1.146560794e-08
1.157729233e-08
1.169901445e-08
1.183129201e-08
1.197455334e-08
1.212907851e-08
1.229491468e-08
1.247175401e-08
1.265875842e-08
1.285430695e-08
1.305562827e-08
1.325826264e-08
1.345526617e-08
1.363601675e-08
1.378438121e-08
1.387585007e-08
1.387281978e-08
1.371688518e-08
1.331404946e-08
1.25124696e-08
1.104006093e-08
8.477576671e-09
3.916106241e-09
-3.331893613e-09
-1.499128279e-08
1.06086923e-08
1.061020863e-08
1.061397475e-08
1.062007254e-08
1.062835692e-08
1.063883702e-08
1.065166449e-08
1.066702087e-08
1.068508311e-08
1.070604417e-08
1.073013031e-08
1.075760223e-08
1.078875206e-08
1.082390353e-08
1.086341476e-08
1.090768115e-08
1.095713788e-08
1.101226251e-08
1.107357795e-08
1.114165593e-08
1.121712071e-08
1.130065316e-08
1.13929946e-08
1.149495057e-08
1.160739388e-08
1.173126634e-08
1.186757865e-08
1.20174079e-08
1.218189049e-08
1.236220712e-08
1.255955636e-08
1.277511215e-08
1.300995654e-08
1.326497415e-08
1.354068993e-08
1.383702262e-08
1.415290886e-08
1.448572817e-08
1.483041843e-08
1.517809385e-08
1.551385473e-08
1.581317394e-08
1.603586086e-08
1.61144631e-08
1.593403133e-08
1.527342251e-08
1.372629883e-08
1.013892065e-08
2.781834822e-09
-1.855874048e-08
1.068876674e-08
1.069051198e-08
1.069484672e-08
1.07018629e-08
1.071138941e-08
1.072343137e-08
1.073815697e-08
1.075576776e-08
1.077645938e-08
1.080044556e-08
1.082797831e-08
1.085934971e-08
1.089488897e-08
1.093496333e-08
1.0979982e-08
1.103040044e-08
1.108672438e-08
1.114951427e-08
1.121939064e-08
1.129704048e-08
1.138322463e-08
1.147878609e-08
1.15846591e-08
1.17018791e-08
1.183159427e-08
1.197507825e-08
1.213374342e-08
1.230915479e-08
1.250304409e-08
1.271732267e-08