/*--------------------------------*- C++ -*----------------------------------*\
| =========                 |                                                 |
| \\      /  F ield         | foam-extend: Open Source CFD                    |
|  \\    /   O peration     | Version:     4.1                                |
|   \\  /    A nd           | Web:         http://www.foam-extend.org         |
|    \\/     M anipulation  |                                                 |
\*---------------------------------------------------------------------------*/
FoamFile
{
    version     2.0;
    format      ascii;
    class       surfaceScalarField;
    location    "140000";
    object      phi;
}
// * * * * * * * * * * * * * * * * * * * * * * * * * * * * * * * * * * * * * //

dimensions      [0 3 -1 0 0 0 0];

internalField   nonuniform List<scalar> 
31542
(
1.062538737e-07
3.076126327e-09
1.006202227e-07
5.633650559e-09
9.41132636e-08
6.50695908e-09
8.732420552e-08
6.789058202e-09
8.053331168e-08
6.790893935e-09
7.399895401e-08
6.534357567e-09
6.789443201e-08
6.104521593e-09
6.231427722e-08
5.580154091e-09
5.730361436e-08
5.010661978e-09
5.287277467e-08
4.43083877e-09
4.900756187e-08
3.865211989e-09
4.567566485e-08
3.331896461e-09
4.283277655e-08
2.842888035e-09
4.042838752e-08
2.404389078e-09
3.841009318e-08
2.018294636e-09
3.672650203e-08
1.683591556e-09
3.532915092e-08
1.397351457e-09
3.417368325e-08
1.155467808e-09
3.322045387e-08
9.532291998e-10
3.243471616e-08
7.857372227e-10
3.178652697e-08
6.481884923e-10
3.125046961e-08
5.360566209e-10
3.080526832e-08
4.452006405e-10
3.04333311e-08
3.719367083e-10
3.012025536e-08
3.130753152e-10
2.985436448e-08
2.658903869e-10
2.962627425e-08
2.280895614e-10
2.942849284e-08
1.977804713e-10
2.925506259e-08
1.734291139e-10
2.910124713e-08
1.538142971e-10
2.8963264e-08
1.379821548e-10
2.883806054e-08
1.252028199e-10
2.872312989e-08
1.149304056e-10
2.861636289e-08
1.067670538e-10
2.851593146e-08
1.004315675e-10
2.842019853e-08
9.57329104e-11
2.832764998e-08
9.254819807e-11
2.823684537e-08
9.080388276e-11
2.814638508e-08
9.045924329e-11
2.805489096e-08
9.149292419e-11
2.796099663e-08
9.389315753e-11
2.786334502e-08
9.765058545e-11
2.776059193e-08
1.027522389e-10
2.765141491e-08
1.091762731e-10
2.753452642e-08
1.168877933e-10
2.740868964e-08
1.258360827e-10
2.727273577e-08
1.359532201e-10
2.712558118e-08
1.471540171e-10
2.696624409e-08
1.593366266e-10
1.723833544e-10
2.679386042e-08
1.113831629e-07
1.022963453e-09
1.139962143e-07
3.02059874e-09
1.160876986e-07
4.415474368e-09
1.174673832e-07
5.409373384e-09
1.180934242e-07
6.164853187e-09
1.179601185e-07
6.667664136e-09
1.171597255e-07
6.904915764e-09
1.158193829e-07
6.920498122e-09
1.1406455e-07
6.765495937e-09
1.120124078e-07
6.482981752e-09
1.097672594e-07
6.110360654e-09
1.074174294e-07
5.681726415e-09
1.050342039e-07
5.226113397e-09
1.026730405e-07
4.76555234e-09
1.00375138e-07
4.316197342e-09
9.816951306e-08
3.889217002e-09
9.607515102e-08
3.491714334e-09
9.410307271e-08
3.127547202e-09
9.225821692e-08
2.798086224e-09
9.054105186e-08
2.502903549e-09
8.894888487e-08
2.240356733e-09
8.747688583e-08
2.008056846e-09
8.611891178e-08
1.803175823e-09
8.486812019e-08
1.622729378e-09
8.371731688e-08
1.463879695e-09
8.265926131e-08
1.323947062e-09
8.168685955e-08
1.200492489e-09
8.079328742e-08
1.091353844e-09
7.997206204e-08
9.946557746e-10
7.921707394e-08
9.08803671e-10
7.852259081e-08
8.324664952e-10
7.788324239e-08
7.645523187e-10
7.729399371e-08
7.041800023e-10
7.67501118e-08
6.506496897e-10
7.624712998e-08
6.034139588e-10
7.578081263e-08
5.620507095e-10
7.534712309e-08
5.262381624e-10
7.494219551e-08
4.957319957e-10
7.456231069e-08
4.703448182e-10
7.420387619e-08
4.499284825e-10
7.38634112e-08
4.343594612e-10
7.353753657e-08
4.235266838e-10
7.322296942e-08
4.173209261e-10
7.291652184e-08
4.156253631e-10
7.26151036e-08
4.18307482e-10
7.231572835e-08
4.252127107e-10
7.201552301e-08
4.361599385e-10
7.17117391e-08
4.509393804e-10
7.140176668e-08
4.693105722e-10
4.910016849e-10
7.108314976e-08
1.096495324e-07
7.034310166e-10
1.107414232e-07
1.928708143e-09
1.122105771e-07
2.946320393e-09
1.138772488e-07
3.74270137e-09
1.156519644e-07
4.390137075e-09
1.17406571e-07
4.913056716e-09
1.190152059e-07
5.29628003e-09
1.203965382e-07
5.539165064e-09
1.215051711e-07
5.656862435e-09
1.223218706e-07
5.666281903e-09
1.228485626e-07
5.583668586e-09
1.231037474e-07
5.426541645e-09
1.231166788e-07
5.213182292e-09
1.229214982e-07
4.960733189e-09
1.225535206e-07
4.68417507e-09
1.220467523e-07
4.395985328e-09
1.214323956e-07
4.106070622e-09
1.207380399e-07
3.821902346e-09
1.199873695e-07
3.548755924e-09
1.19200224e-07
3.290048234e-09
1.183928717e-07
3.047708308e-09
1.175783994e-07
2.822528589e-09
1.167671027e-07
2.614472006e-09
1.159668839e-07
2.422947576e-09
1.151837223e-07
2.247040504e-09
1.14422014e-07
2.085654519e-09
1.136848777e-07
1.93762776e-09
1.129744108e-07
1.801819741e-09
1.122918966e-07
1.677169161e-09
1.116379715e-07
1.562728396e-09
1.110127573e-07
1.457680665e-09
1.104159652e-07
1.361344526e-09
1.098469761e-07
1.273169439e-09
1.093049005e-07
1.192725337e-09
1.087886257e-07
1.119688558e-09
1.082968501e-07
1.053825724e-09
1.078281107e-07
9.94976742e-10
1.073808037e-07
9.430378906e-10
1.069532019e-07
8.979455332e-10
1.065434684e-07
8.596609549e-10
1.061496702e-07
8.281566784e-10
1.057697917e-07
8.034042542e-10
1.054017484e-07
7.853632444e-10
1.050434016e-07
7.739712852e-10
1.04692573e-07
7.691353988e-10
1.043470605e-07
7.707245993e-10
1.040046568e-07
7.785630975e-10
1.036631656e-07
7.924301507e-10
1.033204204e-07
8.120555274e-10
8.371183326e-10
1.029743036e-07
1.095676954e-07
4.65735305e-10
1.100995961e-07
1.396807628e-09
1.108275886e-07
2.218328443e-09
1.116787145e-07
2.891576136e-09
1.126402901e-07
3.428562059e-09
1.137024593e-07
3.85088807e-09
1.148327278e-07
4.166011771e-09
1.159920801e-07
4.379812738e-09
1.171444911e-07
4.504451313e-09
1.18257157e-07
4.553615825e-09
1.193016523e-07
4.539173073e-09
1.202563015e-07
4.47189238e-09
1.211071623e-07
4.362321551e-09
1.218473519e-07
4.220543788e-09
1.224759035e-07
4.055623816e-09
1.229964747e-07
3.875414534e-09
1.234160072e-07
3.686538501e-09
1.237435018e-07
3.494408034e-09
1.23988989e-07
3.303268862e-09
1.24162743e-07
3.116294257e-09
1.242747285e-07
2.935722832e-09
1.243342417e-07
2.763015429e-09
1.243497018e-07
2.599012108e-09
1.243285693e-07
2.444080324e-09
1.242773598e-07
2.29825039e-09
1.242016863e-07
2.161328459e-09
1.241063295e-07
2.032985015e-09
1.239953239e-07
1.912825711e-09
1.238720478e-07
1.80044553e-09
1.237393093e-07
1.695467153e-09
1.235994244e-07
1.597565918e-09
1.23454285e-07
1.506484199e-09
1.233054175e-07
1.422037424e-09
1.231540297e-07
1.344113684e-09
1.230010501e-07
1.272668693e-09
1.228471591e-07
1.207717253e-09
1.226928142e-07
1.149322096e-09
1.225382706e-07
1.097581864e-09
1.223835979e-07
1.052618396e-09
1.222286952e-07
1.014563844e-09
1.220733037e-07
9.835481881e-10
1.219170204e-07
9.596874412e-10
1.217593111e-07
9.430725359e-10
1.215995233e-07
9.337589951e-10
1.214369013e-07
9.317575335e-10
1.212705996e-07
9.370264008e-10
1.21099698e-07
9.494649791e-10
1.209232188e-07
9.689094665e-10
1.207401451e-07
9.951291909e-10
1.0278248e-09
1.205494385e-07
1.094428912e-07
3.528440301e-10
1.097733555e-07
1.066343154e-09
1.102716086e-07
1.720075089e-09
1.108842192e-07
2.278965489e-09
1.115738919e-07
2.738889296e-09
1.123172665e-07
3.107513494e-09
1.130931996e-07
3.390078797e-09
1.138827878e-07
3.590224704e-09
1.146722351e-07
3.715004216e-09
1.154514452e-07
3.774405945e-09
1.162119138e-07
3.778704598e-09
1.169463056e-07
3.737500617e-09
1.176487757e-07
3.659851254e-09
1.183151187e-07
3.554200581e-09
1.189426694e-07
3.42807272e-09
1.195301704e-07
3.287913163e-09
1.200776046e-07
3.13910395e-09
1.205859784e-07
2.986033931e-09
1.210570711e-07
2.832175936e-09
1.21493187e-07
2.680178129e-09
1.218969351e-07
2.531974406e-09
1.222710464e-07
2.388903638e-09
1.22618232e-07
2.251826059e-09
1.229410807e-07
2.121231256e-09
1.232419944e-07
1.997336461e-09
1.235231518e-07
1.880171078e-09
1.23786492e-07
1.769645048e-09
1.240337153e-07
1.665602708e-09
1.242662953e-07
1.567865914e-09
1.244854961e-07
1.476266692e-09
1.246923926e-07
1.390669635e-09
1.248878906e-07
1.310986194e-09
1.25072746e-07
1.237182057e-09
1.252475804e-07
1.169279172e-09
1.254128955e-07
1.107353607e-09
1.255690831e-07
1.051529632e-09
1.257164341e-07
1.001971037e-09
1.258551444e-07
9.588714091e-10
1.259853194e-07
9.224430568e-10
1.261069779e-07
8.929048255e-10
1.262200555e-07
8.704698834e-10
1.263244084e-07
8.553338308e-10
1.264198171e-07
8.476631833e-10
1.265059916e-07
8.475840466e-10
1.265825778e-07
8.551710805e-10
1.26649165e-07
8.704388745e-10
1.26705295e-07
8.933348323e-10
1.267504714e-07
9.237326919e-10
1.267841726e-07
9.614274737e-10
1.006132399e-09
1.268058645e-07
1.09407735e-07
2.751094678e-10
1.096458382e-07
8.282406332e-10
1.10019129e-07
1.346784691e-09
1.104920471e-07
1.806047649e-09
1.110346587e-07
2.196277668e-09
1.116248635e-07
2.517308727e-09
1.122440539e-07
2.770888382e-09
1.128753963e-07
2.958882345e-09
1.135052895e-07
3.08511122e-09
1.141239307e-07
3.155765087e-09
1.147245331e-07
3.178102481e-09
1.153025966e-07
3.15943731e-09
1.158555564e-07
3.106891523e-09
1.163824586e-07
3.027298378e-09
1.168835474e-07
2.9269838e-09
1.173598933e-07
2.81156707e-09
1.178131164e-07
2.68588078e-09
1.182451763e-07
2.553973971e-09
1.186582026e-07
2.419149527e-09
1.19054359e-07
2.284021786e-09
1.194357396e-07
2.150593719e-09
1.198042967e-07
2.020346469e-09
1.201617914e-07
1.894331407e-09
1.205097647e-07
1.773258038e-09
1.208495267e-07
1.657574535e-09
1.211821595e-07
1.54753859e-09
1.215085278e-07
1.443277098e-09
1.218292957e-07
1.344835102e-09
1.221449465e-07
1.252215484e-09
1.224558038e-07
1.165409734e-09
1.227620529e-07
1.084420709e-09
1.23063761e-07
1.00927827e-09
1.233608949e-07
9.400482797e-10
1.236533368e-07
8.76837452e-10
1.239408962e-07
8.197944356e-10
1.242233198e-07
7.691063151e-10
1.245003002e-07
7.24990945e-10
1.247714809e-07
6.876907366e-10
1.250364608e-07
6.574630397e-10
1.252947968e-07
6.345683942e-10
1.255460073e-07
6.192588657e-10
1.257895748e-07
6.11765832e-10
1.260249496e-07
6.122879495e-10
1.26251553e-07
6.209803908e-10
1.26468781e-07
6.379429992e-10
1.266760103e-07
6.632094096e-10
1.268726071e-07
6.967377274e-10
1.270579364e-07
7.384030205e-10
1.272313719e-07
7.87991589e-10
8.451964954e-10
1.273923075e-07
1.093888931e-07
2.162165251e-10
1.095657659e-07
6.513684224e-10
1.098476917e-07
1.064859344e-09
1.102143471e-07
1.439392638e-09
1.106457123e-07
1.764912621e-09
1.111249003e-07
2.038120817e-09
1.116370377e-07
2.258751164e-09
1.121682735e-07
2.427646719e-09
1.127064046e-07
2.546980399e-09
1.132416318e-07
2.620538139e-09
1.137665527e-07
2.653181805e-09
1.142758252e-07
2.650164818e-09
1.147659208e-07
2.61679574e-09
1.152349198e-07
2.558299231e-09
1.156822415e-07
2.479662004e-09
1.161083393e-07
2.385469205e-09
1.165144195e-07
2.279800612e-09
1.169022002e-07
2.166193342e-09
1.172737067e-07
2.047643036e-09
1.176311019e-07
1.926626569e-09
1.179765531e-07
1.805142471e-09
1.183121343e-07
1.684765239e-09
1.186397587e-07
1.566706987e-09
1.189611365e-07
1.451880344e-09
1.192777525e-07
1.340958835e-09
1.19590859e-07
1.234432506e-09
1.199014795e-07
1.132657072e-09
1.20210419e-07
1.035895955e-09
1.205182793e-07
9.443554164e-10
1.208254769e-07
8.582121229e-10
1.211322613e-07
7.776361441e-10
1.214387321e-07
7.028072953e-10
1.217448569e-07
6.339232254e-10
1.22050486e-07
5.71208316e-10
1.223553648e-07
5.149156609e-10
1.226591454e-07
4.653259735e-10
1.229613956e-07
4.22740887e-10
1.232616069e-07
3.874793682e-10
1.235592016e-07
3.598680758e-10
1.238535391e-07
3.40230519e-10
1.24143921e-07
3.288764916e-10
1.244295961e-07
3.260903559e-10
1.247097666e-07
3.32117178e-10
1.249836001e-07
3.471465823e-10
1.252502371e-07
3.713058293e-10
1.255087978e-07
4.046486103e-10
1.257583921e-07
4.471431216e-10
1.259981333e-07
4.98661496e-10
1.262271519e-07
5.589724981e-10
6.277359578e-10
1.264446122e-07
1.093751342e-07
1.710826482e-10
1.095109888e-07
5.155143651e-10
1.097305571e-07
8.452914305e-10
1.100218436e-07
1.148106255e-09
1.103711208e-07
1.41563557e-09
1.107653607e-07
1.643881071e-09
1.111926681e-07
1.831443949e-09
1.116420809e-07
1.978234196e-09
1.121037802e-07
2.085281464e-09
1.125694958e-07
2.154822893e-09
1.130326224e-07
2.190055398e-09
1.134880845e-07
2.194702858e-09
1.139321791e-07
2.172701082e-09
1.143624507e-07
2.128027624e-09
1.147775418e-07
2.064570896e-09
1.151770083e-07
1.986002911e-09
1.155611267e-07
1.895682452e-09
1.159307173e-07
1.796603079e-09
1.162869855e-07
1.691375226e-09
1.166313829e-07
1.582229411e-09
1.169654905e-07
1.471035049e-09
1.172909241e-07
1.359331837e-09
1.176092616e-07
1.248369557e-09
1.179219905e-07
1.139151615e-09
1.182304707e-07
1.032478941e-09
1.185359115e-07
9.289921116e-10
1.188393594e-07
8.292095928e-10
1.191416935e-07
7.33562219e-10
1.194436256e-07
6.424235448e-10
1.197457068e-07
5.561308405e-10
1.200483351e-07
4.750076473e-10
1.203517619e-07
3.993801989e-10
1.206561035e-07
3.295814585e-10
1.209613437e-07
2.659680857e-10
1.212673393e-07
2.089201228e-10
1.21573843e-07
1.588225619e-10
1.218804947e-07
1.160893011e-10
1.221868289e-07
8.114530429e-11
1.224922815e-07
5.441533744e-11
1.227961967e-07
3.631518964e-11
1.230978317e-07
2.724124346e-11
1.233963649e-07
2.755695891e-11
1.236908977e-07
3.758419647e-11
1.239804721e-07
5.757200688e-11
1.242640732e-07
8.77044693e-11
1.245406463e-07
1.280752701e-10
1.248091128e-07
1.786764592e-10
1.250683852e-07
2.393890074e-10
1.253173837e-07
3.099738431e-10
3.900586002e-10
1.255550605e-07
1.093658663e-07
1.352168319e-10
1.094739453e-07
4.074359746e-10
1.096499134e-07
6.693236174e-10
1.098860462e-07
9.119735823e-10
1.101728283e-07
1.128853554e-09
1.105005664e-07
1.316143008e-09
1.108600815e-07
1.47192893e-09
1.112428131e-07
1.595502868e-09
1.11640942e-07
1.687152725e-09
1.120476313e-07
1.748133855e-09
1.124571802e-07
1.780506735e-09
1.128650216e-07
1.786861554e-09
1.13267648e-07
1.770074789e-09
1.136625276e-07
1.733148219e-09
1.140480069e-07
1.679091767e-09
1.144231903e-07
1.610819788e-09
1.14787807e-07
1.531066099e-09
1.151420821e-07
1.442328331e-09
1.154866181e-07
1.346839627e-09
1.158222878e-07
1.246560124e-09
1.161501404e-07
1.143182743e-09
1.164713226e-07
1.038150027e-09
1.167870132e-07
9.326791633e-10
1.170983736e-07
8.277914538e-10
1.174065086e-07
7.243442613e-10
1.177124378e-07
6.230631713e-10
1.180170775e-07
5.245702035e-10
1.183212295e-07
4.294103481e-10
1.186255739e-07
3.380792032e-10
1.189306623e-07
2.510422076e-10
1.192369074e-07
1.687623377e-10
1.195446133e-07
9.167402399e-11
1.198539584e-07
2.023629697e-11
1.201649975e-07
-4.507097515e-11
1.204776314e-07
-1.037136367e-10
1.20791675e-07
-1.552208936e-10
1.211068035e-07
-1.990389274e-10
1.214225765e-07
-2.346276048e-10
1.217384378e-07
-2.61445825e-10
1.220537143e-07
-2.789613052e-10
1.223676206e-07
-2.866651104e-10
1.226792637e-07
-2.840863343e-10
1.22987656e-07
-2.708083602e-10
1.232917162e-07
-2.464885175e-10
1.235902897e-07
-2.108693295e-10
1.238821591e-07
-1.637943516e-10
1.241660601e-07
-1.052248337e-10
1.244407032e-07
-3.525420389e-11
1.247047862e-07
4.589078498e-11
1.37795499e-10
1.249570489e-07
1.093592494e-07
1.059677976e-10
1.094472962e-07
3.193896423e-10
1.09591264e-07
5.253560845e-10
1.097859704e-07
7.172672159e-10
1.10024798e-07
8.900260142e-10
1.103006479e-07
1.040293108e-09
1.106064978e-07
1.166079176e-09
1.109356213e-07
1.2663795e-09
1.112817415e-07
1.341032604e-09
1.116392179e-07
1.390657713e-09
1.120031929e-07
1.416531819e-09
1.123696441e-07
1.420410542e-09
1.127353642e-07
1.404354912e-09
1.130979144e-07
1.370598292e-09
1.134555622e-07
1.321444306e-09
1.138072024e-07
1.259179963e-09
1.141522658e-07
1.186003064e-09
1.14490625e-07
1.103969493e-09
1.148225042e-07
1.014960821e-09
1.151483956e-07
9.206690914e-10
1.154689842e-07
8.225945942e-10
1.157850813e-07
7.220532407e-10
1.16097569e-07
6.201918157e-10
1.164073542e-07
5.180065337e-10
1.16715334e-07
4.163646838e-10
1.170223666e-07
3.160308068e-10
1.173292412e-07
2.176958165e-10
1.176366665e-07
1.219851133e-10
1.17945273e-07
2.947277673e-11
1.182556177e-07
-5.93025932e-11
1.185680736e-07
-1.436935937e-10
1.188829735e-07
-2.232259744e-10
1.192004967e-07
-2.97286816e-10
1.195207049e-07
-3.652790093e-10
1.198435687e-07
-4.26577215e-10
1.201688933e-07
-4.805453405e-10
1.204963718e-07
-5.265171487e-10
1.208255592e-07
-5.638147802e-10
1.211558736e-07
-5.917600756e-10
1.214865979e-07
-6.096855115e-10
1.218168809e-07
-6.169481952e-10
1.221457413e-07
-6.129470746e-10
1.224720736e-07
-5.971412162e-10
1.227946527e-07
-5.690680445e-10
1.23112147e-07
-5.283639899e-10
1.234231372e-07
-4.747847189e-10
1.237261359e-07
-4.08223886e-10
1.240196112e-07
-3.287298439e-10
1.243020226e-07
-2.365208429e-10
-1.320028291e-10
1.245718208e-07
1.093543067e-07
8.166138512e-11
1.094274323e-07
2.462643068e-10
1.095473883e-07
4.054002457e-10
1.097105808e-07
5.540747761e-10
1.099123025e-07
6.883042567e-10
1.101473059e-07
8.052896698e-10
1.104102085e-07
9.031765961e-10
1.106957256e-07
9.808623888e-10
1.109988345e-07
1.037923738e-09
1.113149277e-07
1.074564641e-09
1.116399336e-07
1.091526152e-09
1.119703808e-07
1.08996357e-09
1.123034114e-07
1.07132456e-09
1.12636764e-07
1.037245943e-09
1.129687396e-07
9.894689145e-10
1.132981531e-07
9.297667378e-10
1.136242726e-07
8.598837326e-10
1.139467535e-07
7.814889581e-10
1.142655714e-07
6.961432379e-10
1.14580959e-07
6.052819244e-10
1.148933452e-07
5.102088255e-10
1.152033033e-07
4.120954179e-10
1.15511504e-07
3.11991487e-10
1.15818666e-07
2.108448187e-10
1.161255282e-07
1.095027288e-10
1.164328478e-07
8.711334284e-12
1.167413256e-07
-9.078179559e-11
1.170516097e-07
-1.882988708e-10
1.173643029e-07
-2.832203882e-10
1.176798859e-07
-3.748854465e-10
1.179988296e-07
-4.626369765e-10
1.183214356e-07
-5.458318183e-10
1.186479273e-07
-6.237781832e-10
1.189784039e-07
-6.957554981e-10
1.193128431e-07
-7.610162066e-10
1.196510784e-07
-8.187804562e-10
1.199928038e-07
-8.682423531e-10
1.203375651e-07
-9.085758927e-10
1.206847519e-07
-9.389468816e-10
1.210335938e-07
-9.585274692e-10
1.21383158e-07
-9.665127719e-10
1.217323507e-07
-9.621402374e-10
1.220799201e-07
-9.447112794e-10
1.224244663e-07
-9.136148494e-10
1.227644544e-07
-8.683525663e-10
1.230982321e-07
-8.08562687e-10
1.234240513e-07
-7.340430456e-10
1.237400945e-07
-6.447732457e-10
1.240445078e-07
-5.409344186e-10
-4.229255834e-10
1.243354303e-07
1.093505302e-07
6.11313982e-11
1.094122705e-07
1.845242091e-10
1.095137974e-07
3.038735257e-10
1.096525344e-07
4.153377474e-10
1.098250532e-07
5.157854558e-10
1.100274346e-07
6.029082417e-10
1.102555513e-07
6.750597678e-10
1.105052624e-07
7.31151195e-10
1.107725605e-07
7.70625687e-10
1.110536979e-07
7.934272757e-10
1.113452886e-07
7.999356648e-10
1.116443731e-07
7.908792846e-10
1.11948449e-07
7.672488868e-10
1.122554744e-07
7.302208047e-10
1.125638537e-07
6.810897417e-10
1.128724102e-07
6.212102299e-10
1.13180348e-07
5.519460843e-10
1.134872032e-07
4.746338494e-10
1.137928036e-07
3.905431729e-10
1.140972185e-07
3.008673283e-10
1.144007028e-07
2.067249825e-10
1.147036615e-07
1.091371496e-10
1.15006635e-07
9.018421056e-12
1.153102131e-07
-9.273289463e-11
1.156150276e-07
-1.953115606e-10
1.159217335e-07
-2.979943645e-10
1.162309887e-07
-4.000368807e-10
1.165434312e-07
-5.007411965e-10
1.168596332e-07
-5.994221199e-10
1.171801239e-07
-6.953756982e-10
1.175053652e-07
-7.878777556e-10
1.17835709e-07
-8.761752719e-10
1.181714131e-07
-9.594818926e-10
1.185126224e-07
-1.036964655e-09
1.188593499e-07
-1.107743606e-09
1.192114643e-07
-1.17089473e-09
1.195686776e-07
-1.225455678e-09
1.199305338e-07
-1.270432147e-09
1.202963971e-07
-1.304810281e-09
1.206654429e-07
-1.327573691e-09
1.210366528e-07
-1.337723197e-09
1.214088117e-07
-1.334299727e-09
1.217805103e-07
-1.316410451e-09
1.221501522e-07
-1.283257249e-09
1.225159659e-07
-1.234166715e-09
1.228760237e-07
-1.168620737e-09
1.232282672e-07
-1.08628653e-09
1.235705391e-07
-9.870448702e-10
1.239006198e-07
-8.710150182e-10
-7.385755747e-10
1.242162696e-07
1.093475784e-07
4.35531659e-11
1.094004259e-07
1.316768886e-10
1.094874946e-07
2.168050402e-10
1.096068904e-07
2.959419473e-10
1.097560695e-07
3.666063758e-10
1.099320735e-07
4.269041289e-10
1.101317234e-07
4.754098295e-10
1.103517676e-07
5.111068671e-10
1.105890058e-07
5.333874256e-10
1.10840394e-07
5.420391199e-10
1.111031306e-07
5.371992387e-10
1.113747177e-07
5.192923594e-10
1.116529973e-07
4.889694718e-10
1.119361654e-07
4.4705281e-10
1.122227722e-07
3.944830059e-10
1.125117103e-07
3.322722012e-10
1.128021956e-07
2.614607445e-10
1.130937055e-07
1.831240182e-10
1.133859978e-07
9.825110143e-11
1.136790656e-07
7.799888367e-12
1.139730563e-07
-8.7265223e-11
1.142682731e-07
-1.860791065e-10
1.145651402e-07
-2.878481974e-10
1.148641828e-07
-3.917749896e-10
1.151659914e-07
-4.971199659e-10
1.154711721e-07
-6.031748063e-10
1.157803668e-07
-7.092314315e-10
1.160942087e-07
-8.145828042e-10
1.164132962e-07
-9.185091855e-10
1.167381883e-07
-1.020267211e-09
1.170693852e-07
-1.119074093e-09
1.174073084e-07
-1.214098008e-09
1.177522804e-07
-1.304453664e-09
1.181045087e-07
-1.389192732e-09
1.184640664e-07
-1.467301296e-09
1.188308739e-07
-1.537702296e-09
1.192046784e-07
-1.59926044e-09
1.19585037e-07
-1.650790995e-09
1.199713001e-07
-1.691073645e-09
1.203625971e-07
-1.718871124e-09
1.207578255e-07
-1.732952171e-09
1.211556441e-07
-1.732118848e-09
1.215544712e-07
-1.715237963e-09
1.219524896e-07
-1.681275872e-09
1.223476586e-07
-1.629335781e-09
1.227377342e-07
-1.558696389e-09
1.231202979e-07
-1.468850211e-09
1.234927932e-07
-1.359539962e-09
1.238525695e-07
-1.230791216e-09
-1.082940108e-09
1.241969342e-07
1.093452194e-07
2.833390971e-11
1.09390976e-07
8.592058674e-11
1.094664776e-07
1.413036656e-10
1.095703019e-07
1.921176692e-10
1.097005302e-07
2.363781172e-10
1.098549035e-07
2.725307173e-10
1.100309563e-07
2.993569497e-10
1.102261271e-07
3.159359216e-10
1.104378572e-07
3.216573733e-10
1.106636764e-07
3.162199684e-10
1.109012762e-07
2.995995672e-10
1.111485657e-07
2.720029589e-10
1.114037081e-07
2.338272419e-10
1.116651364e-07
1.856246496e-10
1.119315625e-07
1.280570529e-10
1.122019722e-07
6.18624731e-11
1.124756964e-07
-1.226339981e-11
1.127521373e-07
-9.331682609e-11
1.130310819e-07
-1.806932514e-10
1.133124487e-07
-2.735664572e-10
1.135963591e-07
-3.711750023e-10
1.138830821e-07
-4.728014791e-10
1.141729915e-07
-5.777570602e-10
1.144665797e-07
-6.853626816e-10
1.147644124e-07
-7.949523829e-10
1.150671007e-07
-9.058629784e-10
1.153752933e-07
-1.017423746e-09
1.15689652e-07
-1.12894125e-09
1.16010831e-07
-1.239687734e-09
1.163394555e-07
-1.348891147e-09
1.166761028e-07
-1.455720901e-09
1.170212817e-07
-1.559276542e-09
1.173754083e-07
-1.658579959e-09
1.177387835e-07
-1.752567874e-09
1.181115699e-07
-1.840087674e-09
1.184937657e-07
-1.919898183e-09
1.188851796e-07
-1.99067461e-09
1.192854063e-07
-2.051018112e-09
1.19693803e-07
-2.099470735e-09
1.201094677e-07
-2.134536137e-09
1.205312214e-07
-2.154706151e-09
1.209575954e-07
-2.158493094e-09
1.21386825e-07
-2.144467583e-09
1.218168504e-07
-2.111301201e-09
1.222453278e-07
-2.057812978e-09
1.226696497e-07
-1.983018218e-09
1.230869773e-07
-1.886177783e-09
1.234942829e-07
-1.766845523e-09
1.23888403e-07
-1.62491129e-09
-1.460637796e-09
1.242661006e-07
1.09343287e-07
1.504710235e-11
1.093832776e-07
4.593024624e-11
1.0944935e-07
7.523149833e-11
1.095404152e-07
1.010525868e-10
1.096550032e-07
1.217901124e-10
1.09791368e-07
1.361658858e-10
1.09947581e-07
1.431438845e-10
1.101216188e-07
1.418980095e-10
1.103114392e-07
1.318369411e-10
1.105150345e-07
1.12624709e-10
1.107305078e-07
8.412635505e-11
1.109561193e-07
4.639172156e-11
1.111903265e-07
-3.797354214e-13
1.11431787e-07
-5.583553005e-11
1.116793913e-07
-1.195471147e-10
1.119322585e-07
-1.910045164e-10
1.121896595e-07
-2.696643346e-10
1.124512529e-07
-3.549099707e-10
1.127167414e-07
-4.461814569e-10
1.129860642e-07
-5.428887225e-10
1.132593365e-07
-6.444466936e-10
1.135368172e-07
-7.502815167e-10
1.138188855e-07
-8.598247991e-10
1.141060328e-07
-9.725095814e-10
1.1439884e-07
-1.087759337e-09
1.146979562e-07
-1.204979038e-09
1.150040789e-07
-1.323546326e-09
1.153179355e-07
-1.442797519e-09
1.156402625e-07
-1.562014495e-09
1.159717841e-07
-1.680412348e-09
1.163131893e-07
-1.797125704e-09
1.166651087e-07
-1.911195604e-09
1.170280877e-07
-2.021558693e-09
1.174025585e-07
-2.127038453e-09
1.177888102e-07
-2.226339384e-09
1.181869577e-07
-2.318045766e-09
1.185969084e-07
-2.400625428e-09
1.190183291e-07
-2.472439077e-09
1.194506141e-07
-2.531755993e-09
1.198928545e-07
-2.576776751e-09
1.203438118e-07
-2.605663413e-09
1.208018962e-07
-2.616577381e-09
1.212651538e-07
-2.607724788e-09
1.217312617e-07
-2.577408774e-09
1.221975364e-07
-2.524087469e-09
1.22660954e-07
-2.446435954e-09
1.231181858e-07
-2.34340988e-09
1.235656478e-07
-2.214307674e-09
1.239995644e-07
-2.058827759e-09
-1.877117666e-09
1.244160443e-07
1.093416892e-07
3.358145329e-12
1.093768963e-07
1.072331204e-11
1.094351222e-07
1.700571333e-11
1.095155267e-07
2.064821666e-11
1.09616971e-07
2.034580151e-11
1.097380961e-07
1.504069952e-11
1.098773779e-07
3.862108621e-12
1.100332037e-07
-1.39279289e-11
1.102039585e-07
-3.891785933e-11
1.103879956e-07
-7.141231084e-11
1.105837624e-07
-1.116402365e-10
1.107898208e-07
-1.596663684e-10
1.110048695e-07
-2.154280627e-10
1.112277873e-07
-2.78752879e-10
1.114576268e-07
-3.493862344e-10
1.116936315e-07
-4.270089596e-10
1.11935226e-07
-5.112584881e-10
1.121820539e-07
-6.017376258e-10
1.124339133e-07
-6.980404082e-10
1.126907769e-07
-7.997518403e-10
1.12952781e-07
-9.064502923e-10
1.132202088e-07
-1.017708848e-09
1.134934752e-07
-1.133090782e-09
1.137731103e-07
-1.252144428e-09
1.140597447e-07
-1.374393496e-09
1.143540926e-07
-1.499326854e-09
1.146569338e-07
-1.626387416e-09
1.149690949e-07
-1.754958542e-09
1.152914299e-07
-1.884349382e-09
1.156247978e-07
-2.013780022e-09
1.159700384e-07
-2.142365967e-09
1.163279457e-07
-2.26910255e-09
1.166992382e-07
-2.392850767e-09
1.170845254e-07
-2.512325318e-09
1.174842721e-07
-2.626085822e-09
1.17898759e-07
-2.732532586e-09
1.183280414e-07
-2.829907981e-09
1.187719065e-07
-2.916304327e-09
1.192298298e-07
-2.989679365e-09
1.197009335e-07
-3.047880342e-09
1.201839481e-07
-3.088677614e-09
1.206771794e-07
-3.109808364e-09
1.211784856e-07
-3.109030671e-09
1.216852646e-07
-3.084187461e-09
1.221944562e-07
-3.033278992e-09
1.227025617e-07
-2.954541676e-09
1.232056816e-07
-2.846530323e-09
1.236995735e-07
-2.708200067e-09
1.241797286e-07
-2.538983091e-09
-2.338854969e-09
1.246414659e-07
1.093404323e-07
-7.073993683e-12
1.093716086e-07
-2.04529493e-11
1.094231868e-07
-3.457252664e-11
1.094945134e-07
-5.067839675e-11
1.095846991e-07
-6.983992041e-11
1.096926773e-07
-9.293746512e-11
1.098172618e-07
-1.207223821e-10
1.099571711e-07
-1.538373042e-10
1.101110483e-07
-1.927949382e-10
1.102775947e-07
-2.379586144e-10
1.104555404e-07
-2.89585703e-10
1.106436999e-07
-3.478254832e-10
1.108409998e-07
-4.127273937e-10
1.110465024e-07
-4.842549685e-10
1.112594192e-07
-5.62302597e-10
1.114791217e-07
-6.467109915e-10
1.117051455e-07
-7.372819028e-10
1.119371985e-07
-8.33790221e-10
1.121751527e-07
-9.359942797e-10
1.124190414e-07
-1.043640295e-09
1.126690538e-07
-1.156462374e-09
1.129255253e-07
-1.274180053e-09
1.131889279e-07
-1.396493154e-09
1.134598586e-07
-1.523074878e-09
1.137390271e-07
-1.65356187e-09
1.140272425e-07
-1.78754224e-09
1.143253976e-07
-1.924542485e-09
1.146344517e-07
-2.064012664e-09
1.14955412e-07
-2.205309725e-09
1.152893117e-07
-2.347679594e-09
1.156371844e-07
-2.4902383e-09
1.160000349e-07
-2.631952655e-09
1.163788063e-07
-2.771621675e-09
1.167743415e-07
-2.907859969e-09
1.171873404e-07
-3.039084307e-09
1.176183128e-07
-3.163504803e-09
1.180675269e-07
-3.279122087e-09
1.185349544e-07
-3.383731913e-09
1.190202138e-07
-3.474938797e-09
1.19522514e-07
-3.550180272e-09
1.200406001e-07
-3.606763195e-09
1.205727056e-07
-3.641913298e-09
1.211165139e-07
-3.652838795e-09
1.216691343e-07
-3.636808041e-09
1.222270949e-07
-3.591240041e-09
1.22786358e-07
-3.513805145e-09
1.233423595e-07
-3.402532071e-09
1.238900755e-07
-3.255916324e-09
1.244241155e-07
-3.073023498e-09
-2.853579888e-09
1.2493884e-07
1.093392862e-07
-1.636014117e-11
1.093669935e-07
-4.816048808e-11
1.094128526e-07
-8.043168749e-11
1.094763518e-07
-1.141776907e-10
1.095567845e-07
-1.502726763e-10
1.096532973e-07
-1.894502462e-10
1.09764929e-07
-2.323540009e-10
1.098906427e-07
-2.79550947e-10
1.100293648e-07
-3.31517022e-10
1.10180037e-07
-3.886306608e-10
1.10341631e-07
-4.511793802e-10
1.105131784e-07
-5.193724536e-10
1.106937985e-07
-5.93347008e-10
1.108827205e-07
-6.731763401e-10
1.110792993e-07
-7.58880878e-10
1.112830285e-07
-8.504397792e-10
1.114935493e-07
-9.478022727e-10
1.117106563e-07
-1.050896894e-09
1.119342994e-07
-1.159637228e-09
1.121645832e-07
-1.273924014e-09
1.124017649e-07
-1.393643953e-09
1.126462505e-07
-1.518665598e-09
1.128985898e-07
-1.648832338e-09
1.131594684e-07
-1.783953331e-09
1.13429699e-07
-1.923792348e-09
1.137102113e-07
-2.068054476e-09
1.140020397e-07
-2.216370957e-09
1.143063088e-07
-2.368281909e-09
1.146242159e-07
-2.523216773e-09
1.149570091e-07
-2.680472731e-09
1.153059626e-07
-2.839191429e-09
1.15672345e-07
-2.998334581e-09
1.160573834e-07
-3.156659578e-09
1.164622204e-07
-3.312696478e-09
1.168878643e-07
-3.464727857e-09
1.173351328e-07
-3.610773157e-09
1.178045901e-07
-3.748579277e-09
1.182964776e-07
-3.875619367e-09
1.18810641e-07
-3.989102084e-09
1.193464546e-07
-4.085993726e-09
1.199027473e-07
-4.163055631e-09
1.204777333e-07
-4.216898958e-09
1.210689531e-07
-4.244058387e-09
1.216732304e-07
-4.241085477e-09
1.22286651e-07
-4.204661033e-09
1.229045692e-07
-4.131723812e-09
1.235216473e-07
-4.019610651e-09
1.241319318e-07
-3.866201187e-09
1.247289664e-07
-3.670058382e-09
-3.430553822e-09
1.253059403e-07
1.09338243e-07
-2.460320823e-11
1.093628855e-07
-7.280338655e-11
1.094036954e-07
-1.212418543e-10
1.094602622e-07
-1.707445849e-10
1.095320206e-07
-2.220310252e-10
1.09618285e-07