/*--------------------------------*- C++ -*----------------------------------*\
| =========                 |                                                 |
| \\      /  F ield         | foam-extend: Open Source CFD                    |
|  \\    /   O peration     | Version:     4.1                                |
|   \\  /    A nd           | Web:         http://www.foam-extend.org         |
|    \\/     M anipulation  |                                                 |
\*---------------------------------------------------------------------------*/
FoamFile
{
    version     2.0;
    format      ascii;
    class       volVectorField;
    location    "140000";
    object      U;
}
// * * * * * * * * * * * * * * * * * * * * * * * * * * * * * * * * * * * * * //

dimensions      [0 1 -1 0 0 0 0];

internalField   nonuniform List<vector> 
15920
(
(0.0002132430137 5.118613421e-06 0)
(0.0002058583923 1.130349941e-05 0)
(0.0001957495999 1.371957748e-05 0)
(0.0001822267441 1.420149446e-05 0)
(0.0001678250946 1.375476218e-05 0)
(0.0001541961038 1.268677449e-05 0)
(0.0001416029702 1.118188359e-05 0)
(0.0001299642019 9.463740359e-06 0)
(0.0001193539115 7.730132166e-06 0)
(0.0001098930999 6.107471063e-06 0)
(0.0001016080506 4.663849331e-06 0)
(9.443845648e-05 3.430987115e-06 0)
(8.829247107e-05 2.41533436e-06 0)
(8.307195536e-05 1.604860021e-06 0)
(7.867492034e-05 9.766211333e-07 0)
(7.499735882e-05 5.033160517e-07 0)
(7.193846052e-05 1.57417214e-07 0)
(6.940493458e-05 -8.658409118e-08 0)
(6.731285083e-05 -2.510437565e-07 0)
(6.558805477e-05 -3.547635454e-07 0)
(6.416609007e-05 -4.130899077e-07 0)
(6.299182816e-05 -4.382828e-07 0)
(6.201882132e-05 -4.399904604e-07 0)
(6.120845118e-05 -4.256913769e-07 0)
(6.052895321e-05 -4.010368551e-07 0)
(5.995445487e-05 -3.702093199e-07 0)
(5.946407667e-05 -3.362460172e-07 0)
(5.904110174e-05 -3.01299039e-07 0)
(5.867221979e-05 -2.668380165e-07 0)
(5.834685612e-05 -2.338086847e-07 0)
(5.805659218e-05 -2.027581782e-07 0)
(5.779467583e-05 -1.739351554e-07 0)
(5.755561515e-05 -1.473703384e-07 0)
(5.733484809e-05 -1.229412384e-07 0)
(5.712847936e-05 -1.004234497e-07 0)
(5.693307584e-05 -7.953028543e-08 0)
(5.674551045e-05 -5.994540131e-08 0)
(5.656284576e-05 -4.135519961e-08 0)
(5.638225313e-05 -2.347879538e-08 0)
(5.620096183e-05 -6.083356482e-09 0)
(5.601623076e-05 1.101890493e-08 0)
(5.58253366e-05 2.798047641e-08 0)
(5.562557548e-05 4.492344931e-08 0)
(5.541427599e-05 6.193854263e-08 0)
(5.518882194e-05 7.908239821e-08 0)
(5.494668217e-05 9.637594376e-08 0)
(5.46854443e-05 1.138048939e-07 0)
(5.440284925e-05 1.31322667e-07 0)
(5.409682502e-05 1.488540601e-07 0)
(5.376551927e-05 1.662985388e-07 0)
(0.0002201180822 5.642362821e-06 0)
(0.0002251698846 1.293600409e-05 0)
(0.0002303485996 1.659840519e-05 0)
(0.0002340419592 1.853611211e-05 0)
(0.0002359703838 1.965295278e-05 0)
(0.0002363585293 2.007226768e-05 0)
(0.0002353847497 1.983908563e-05 0)
(0.000233208546 1.90958429e-05 0)
(0.0002300578287 1.799979383e-05 0)
(0.0002261931142 1.667272113e-05 0)
(0.0002218496583 1.520906006e-05 0)
(0.0002172196561 1.368848301e-05 0)
(0.00021245859 1.21766661e-05 0)
(0.0002076916435 1.072338329e-05 0)
(0.000203015471 9.363095419e-06 0)
(0.0001984999748 8.117265599e-06 0)
(0.000194192237 6.996840987e-06 0)
(0.0001901212776 6.004543468e-06 0)
(0.0001863022822 5.137022705e-06 0)
(0.000182740052 4.386796897e-06 0)
(0.0001794318558 3.743865545e-06 0)
(0.0001763697504 3.196964314e-06 0)
(0.0001735424275 2.734507593e-06 0)
(0.0001709366547 2.345233203e-06 0)
(0.0001685382226 2.01857375e-06 0)
(0.0001663325849 1.744912205e-06 0)
(0.0001643053203 1.515734847e-06 0)
(0.0001624424496 1.323681039e-06 0)
(0.0001607306287 1.162514546e-06 0)
(0.0001591572461 1.027046591e-06 0)
(0.0001577104536 9.130324988e-07 0)
(0.0001563791513 8.170559507e-07 0)
(0.0001551529421 7.364104778e-07 0)
(0.0001540220701 6.689849875e-07 0)
(0.0001529773493 6.131575828e-07 0)
(0.0001520100912 5.67699757e-07 0)
(0.0001511120366 5.316914663e-07 0)
(0.0001502752946 5.04447026e-07 0)
(0.0001494922905 4.854522194e-07 0)
(0.0001487557212 4.743135735e-07 0)
(0.0001480585194 4.707193124e-07 0)
(0.0001473938283 4.74408497e-07 0)
(0.0001467549877 4.851441244e-07 0)
(0.0001461355268 5.026884337e-07 0)
(0.0001455291666 5.267814713e-07 0)
(0.0001449298274 5.571247275e-07 0)
(0.0001443316455 5.933702677e-07 0)
(0.000143728994 6.35115868e-07 0)
(0.0001431165079 6.819030069e-07 0)
(0.0001424891139 7.332168817e-07 0)
(0.0002187788114 1.468906902e-06 0)
(0.0002200386914 4.394906389e-06 0)
(0.0002226221645 7.028123308e-06 0)
(0.0002259659695 9.383813799e-06 0)
(0.0002295376848 1.148447057e-05 0)
(0.0002331053582 1.321473906e-05 0)
(0.0002365005766 1.447852937e-05 0)
(0.0002395301837 1.527149384e-05 0)
(0.0002420448429 1.563888967e-05 0)
(0.0002439751472 1.563805076e-05 0)
(0.0002453122253 1.533175743e-05 0)
(0.000246082625 1.478796379e-05 0)
(0.0002463358962 1.407430097e-05 0)
(0.000246136675 1.32517129e-05 0)
(0.0002455561729 1.237102729e-05 0)
(0.0002446650527 1.14723367e-05 0)
(0.000243529152 1.058570386e-05 0)
(0.0002422074613 9.732338105e-06 0)
(0.0002407512948 8.926013332e-06 0)
(0.0002392041329 8.174586859e-06 0)
(0.0002376019584 7.481448885e-06 0)
(0.0002359739408 6.846785024e-06 0)
(0.0002343432697 6.268621737e-06 0)
(0.0002327279721 5.74364327e-06 0)
(0.0002311417404 5.267781703e-06 0)
(0.0002295947653 4.836675015e-06 0)
(0.0002280944196 4.446002956e-06 0)
(0.0002266458062 4.091706133e-06 0)
(0.0002252522106 3.770112183e-06 0)
(0.0002239154733 3.477996378e-06 0)
(0.0002226362889 3.212597324e-06 0)
(0.0002214144409 2.97160228e-06 0)
(0.0002202489822 2.753112951e-06 0)
(0.0002191383744 2.555600046e-06 0)
(0.0002180805924 2.37785272e-06 0)
(0.000217073204 2.218926943e-06 0)
(0.0002161134309 2.078095109e-06 0)
(0.0002151981954 1.954798262e-06 0)
(0.0002143241577 1.848601737e-06 0)
(0.0002134877464 1.759155026e-06 0)
(0.0002126851848 1.686156484e-06 0)
(0.0002119125172 1.62932235e-06 0)
(0.0002111656366 1.588359052e-06 0)
(0.000210440313 1.562938516e-06 0)
(0.0002097322219 1.552677133e-06 0)
(0.0002090369756 1.55711911e-06 0)
(0.0002083501563 1.575724137e-06 0)
(0.0002076673518 1.607857598e-06 0)
(0.0002069841905 1.652785124e-06 0)
(0.0002062963791 1.709671238e-06 0)
(0.0002187705983 1.486296294e-06 0)
(0.0002194979855 4.324774685e-06 0)
(0.0002207758406 6.729281403e-06 0)
(0.0002224203081 8.587618061e-06 0)
(0.0002242727316 9.994736723e-06 0)
(0.0002262999894 1.105436507e-05 0)
(0.0002284970148 1.181451246e-05 0)
(0.0002308074695 1.230802968e-05 0)
(0.0002331440765 1.257233618e-05 0)
(0.0002354279795 1.264270395e-05 0)
(0.0002375981668 1.254868521e-05 0)
(0.0002396068469 1.231742633e-05 0)
(0.0002414186562 1.197590102e-05 0)
(0.0002430124608 1.155007178e-05 0)
(0.0002443808516 1.106368182e-05 0)
(0.0002455273899 1.053772577e-05 0)
(0.0002464634588 9.990268101e-06 0)
(0.0002472055887 9.436304784e-06 0)
(0.0002477732704 8.887724963e-06 0)
(0.000248187174 8.353463422e-06 0)
(0.0002484678007 7.83981648e-06 0)
(0.0002486345742 7.350842045e-06 0)
(0.0002487052971 6.888776851e-06 0)
(0.0002486958808 6.454459222e-06 0)
(0.0002486202887 6.047748864e-06 0)
(0.000248490614 5.667857646e-06 0)
(0.000248317211 5.313604432e-06 0)
(0.0002481088522 4.983616e-06 0)
(0.000247872905 4.676481453e-06 0)
(0.0002476155111 4.390863604e-06 0)
(0.0002473417545 4.125572675e-06 0)
(0.0002470558085 3.879609049e-06 0)
(0.0002467610625 3.6521816e-06 0)
(0.0002464602262 3.442707456e-06 0)
(0.0002461554166 3.250798208e-06 0)
(0.0002458482268 3.07623654e-06 0)
(0.000245539782 2.918946704e-06 0)
(0.0002452307846 2.778961532e-06 0)
(0.0002449215508 2.656388053e-06 0)
(0.0002446120419 2.551373449e-06 0)
(0.0002443018916 2.464072822e-06 0)
(0.0002439904318 2.394619351e-06 0)
(0.0002436767186 2.343096757e-06 0)
(0.0002433595588 2.30951397e-06 0)
(0.0002430375375 2.293782382e-06 0)
(0.0002427090462 2.295697045e-06 0)
(0.0002423723122 2.31492272e-06 0)
(0.0002420254297 2.350982526e-06 0)
(0.0002416663951 2.403250206e-06 0)
(0.0002412931443 2.470946849e-06 0)
(0.0002187114583 1.032756031e-06 0)
(0.0002191178454 3.003986815e-06 0)
(0.0002199343476 4.757483764e-06 0)
(0.0002210789874 6.235200221e-06 0)
(0.0002224169956 7.449753277e-06 0)
(0.0002238658604 8.426023652e-06 0)
(0.0002253908935 9.171838199e-06 0)
(0.0002269640225 9.694305458e-06 0)
(0.0002285525177 1.001372107e-05 0)
(0.0002301286328 1.015862657e-05 0)
(0.0002316733081 1.015764577e-05 0)
(0.0002331721135 1.003716162e-05 0)
(0.0002346123948 9.821775792e-06 0)
(0.0002359837718 9.534122725e-06 0)
(0.0002372791577 9.194222927e-06 0)
(0.0002384947614 8.819178319e-06 0)
(0.0002396295332 8.423224703e-06 0)
(0.0002406846342 8.017900992e-06 0)
(0.0002416629871 7.612247045e-06 0)
(0.0002425688117 7.213054971e-06 0)
(0.0002434071497 6.825178132e-06 0)
(0.0002441834445 6.451865554e-06 0)
(0.0002449032129 6.095089864e-06 0)
(0.0002455718046 5.755855373e-06 0)
(0.000246194241 5.434474243e-06 0)
(0.0002467751182 5.130790127e-06 0)
(0.0002473185587 4.844356986e-06 0)
(0.0002478281995 4.574584876e-06 0)
(0.0002483072062 4.320854725e-06 0)
(0.0002487583052 4.082601725e-06 0)
(0.0002491838232 3.859370848e-06 0)
(0.0002495857296 3.65084958e-06 0)
(0.000249965675 3.456882404e-06 0)
(0.0002503250281 3.277471279e-06 0)
(0.0002506649044 3.112765394e-06 0)
(0.0002509861915 2.963042532e-06 0)
(0.0002512895676 2.828684246e-06 0)
(0.000251575516 2.710147935e-06 0)
(0.0002518443355 2.607937065e-06 0)
(0.0002520961485 2.522570009e-06 0)
(0.0002523309074 2.454549117e-06 0)
(0.0002525484021 2.404330942e-06 0)
(0.0002527482676 2.372298084e-06 0)
(0.0002529299919 2.358733531e-06 0)
(0.0002530929275 2.363796875e-06 0)
(0.000253236306 2.387502038e-06 0)
(0.0002533592544 2.429698638e-06 0)
(0.0002534608134 2.490059432e-06 0)
(0.000253539959 2.568071727e-06 0)
(0.0002535956286 2.663031892e-06 0)
(0.0002186959004 7.888641228e-07 0)
(0.0002189837161 2.334914121e-06 0)
(0.0002195800878 3.774160407e-06 0)
(0.0002204456891 5.042691029e-06 0)
(0.0002214879627 6.114149065e-06 0)
(0.0002226366762 6.986877717e-06 0)
(0.0002238535917 7.665090093e-06 0)
(0.0002251106826 8.156051493e-06 0)
(0.0002263792549 8.473946275e-06 0)
(0.0002276339442 8.638856842e-06 0)
(0.0002288571569 8.672736458e-06 0)
(0.0002300382016 8.597138745e-06 0)
(0.0002311707146 8.43278192e-06 0)
(0.000232251372 8.199221522e-06 0)
(0.0002332794941 7.914203707e-06 0)
(0.0002342565304 7.593168242e-06 0)
(0.0002351853568 7.249110482e-06 0)
(0.0002360696914 6.892672552e-06 0)
(0.0002369137113 6.532322885e-06 0)
(0.0002377217775 6.174582156e-06 0)
(0.0002384982083 5.824286849e-06 0)
(0.0002392470976 5.484870042e-06 0)
(0.0002399721904 5.15863497e-06 0)
(0.0002406768075 4.847006222e-06 0)
(0.000241363809 4.550752393e-06 0)
(0.0002420355879 4.270177031e-06 0)
(0.0002426940862 4.005277485e-06 0)
(0.0002433408247 3.75587432e-06 0)
(0.0002439769411 3.521713493e-06 0)
(0.0002446032312 3.302542953e-06 0)
(0.0002452201929 3.098167479e-06 0)
(0.0002458280682 2.908485123e-06 0)
(0.0002464268815 2.733507406e-06 0)
(0.0002470164736 2.573367776e-06 0)
(0.0002475965298 2.428319802e-06 0)
(0.0002481666013 2.29872666e-06 0)
(0.0002487261229 2.185043362e-06 0)
(0.0002492744277 2.087794615e-06 0)
(0.0002498107564 2.007549157e-06 0)
(0.0002503342634 1.944891344e-06 0)
(0.0002508440226 1.900391737e-06 0)
(0.0002513390335 1.874577092e-06 0)
(0.0002518182274 1.867899882e-06 0)
(0.0002522804747 1.880707776e-06 0)
(0.0002527245909 1.913216941e-06 0)
(0.0002531493459 1.965491335e-06 0)
(0.0002535534787 2.037422217e-06 0)
(0.0002539357159 2.128707261e-06 0)
(0.0002542947913 2.238835311e-06 0)
(0.0002546294669 2.367078092e-06 0)
(0.0002186873262 6.178790025e-07 0)
(0.0002189029473 1.834882601e-06 0)
(0.000219349848 2.982894393e-06 0)
(0.0002200094051 4.012584338e-06 0)
(0.0002208244141 4.898089766e-06 0)
(0.0002217464731 5.633675689e-06 0)
(0.0002227445131 6.221329534e-06 0)
(0.0002237938289 6.665331927e-06 0)
(0.0002248695676 6.973317072e-06 0)
(0.0002259486476 7.156972533e-06 0)
(0.0002270130122 7.230519503e-06 0)
(0.000228050039 7.209005651e-06 0)
(0.0002290512814 7.107493119e-06 0)
(0.0002300115043 6.940655352e-06 0)
(0.0002309282747 6.722322239e-06 0)
(0.0002318015669 6.465053735e-06 0)
(0.0002326331941 6.179899818e-06 0)
(0.0002334262253 5.876333073e-06 0)
(0.0002341845129 5.562275351e-06 0)
(0.0002349123286 5.244179542e-06 0)
(0.0002356140712 4.927157968e-06 0)
(0.0002362940359 4.61514614e-06 0)
(0.000236956248 4.31108344e-06 0)
(0.0002376043547 4.017094645e-06 0)
(0.0002382415637 3.73466252e-06 0)
(0.0002388706169 3.464785118e-06 0)
(0.0002394937892 3.208113048e-06 0)
(0.0002401129044 2.965065166e-06 0)
(0.000240729362 2.735923691e-06 0)
(0.0002413441715 2.520908841e-06 0)
(0.0002419579895 2.320236674e-06 0)
(0.0002425711562 2.134161775e-06 0)
(0.0002431837301 1.963003575e-06 0)
(0.0002437955213 1.807161921e-06 0)
(0.0002444061194 1.667122011e-06 0)
(0.0002450149163 1.543445725e-06 0)
(0.0002456211266 1.436761661e-06 0)
(0.0002462238061 1.347751982e-06 0)
(0.0002468218657 1.27712744e-06 0)
(0.0002474140838 1.225598521e-06 0)
(0.0002479991189 1.193848275e-06 0)
(0.0002485755198 1.182502808e-06 0)
(0.0002491417358 1.192102056e-06 0)
(0.000249696131 1.223070586e-06 0)
(0.0002502370072 1.275682783e-06 0)
(0.0002507626231 1.350033177e-06 0)
(0.0002512712068 1.446016774e-06 0)
(0.0002517609745 1.563310731e-06 0)
(0.0002522301616 1.701355709e-06 0)
(0.0002526770552 1.859341568e-06 0)
(0.0002186809954 4.870785088e-07 0)
(0.0002188466609 1.448255704e-06 0)
(0.0002191921865 2.36327023e-06 0)
(0.000219709477 3.198131089e-06 0)
(0.000220361299 3.931384103e-06 0)
(0.0002211132247 4.553854082e-06 0)
(0.0002219404137 5.062731187e-06 0)
(0.0002228221652 5.458294208e-06 0)
(0.000223738389 5.743994607e-06 0)
(0.0002246704589 5.926779672e-06 0)
(0.0002256029992 6.016201979e-06 0)
(0.0002265243233 6.02311972e-06 0)
(0.0002274258636 5.95883738e-06 0)
(0.0002283016006 5.834649739e-06 0)
(0.000229147775 5.661477966e-06 0)
(0.0002299626462 5.449525395e-06 0)
(0.0002307461439 5.208028823e-06 0)
(0.0002314994695 4.945133462e-06 0)
(0.0002322247367 4.667858734e-06 0)
(0.0002329246739 4.382121945e-06 0)
(0.0002336023739 4.092805551e-06 0)
(0.0002342610838 3.80385822e-06 0)
(0.0002349040371 3.518416761e-06 0)
(0.0002355343277 3.238935803e-06 0)
(0.0002361548226 2.967315931e-06 0)
(0.0002367681035 2.705024192e-06 0)
(0.0002373764331 2.453201938e-06 0)
(0.0002379817396 2.212758823e-06 0)
(0.0002385856138 1.984454735e-06 0)
(0.0002391893159 1.76896482e-06 0)
(0.0002397937915 1.56693269e-06 0)
(0.0002403996858 1.379001771e-06 0)
(0.0002410073605 1.20584819e-06 0)
(0.0002416169121 1.048204012e-06 0)
(0.0002422281827 9.068631403e-07 0)
(0.0002428407737 7.826707745e-07 0)
(0.0002434540708 6.765096656e-07 0)
(0.0002440672511 5.892943125e-07 0)
(0.0002446792838 5.219526082e-07 0)
(0.0002452889446 4.753963177e-07 0)
(0.0002458948307 4.504910081e-07 0)
(0.0002464953733 4.480265773e-07 0)
(0.0002470888545 4.686842085e-07 0)
(0.0002476734166 5.130032304e-07 0)
(0.000248247075 5.813542205e-07 0)
(0.0002488077519 6.739075807e-07 0)
(0.0002493533103 7.905995836e-07 0)
(0.0002498815788 9.311075055e-07 0)
(0.0002503903806 1.094833513e-06 0)
(0.0002508775767 1.280880567e-06 0)
(0.0002186767177 3.850187069e-07 0)
(0.0002188085519 1.146447178e-06 0)
(0.000219084406 1.876338059e-06 0)
(0.0002195007075 2.550057612e-06 0)
(0.0002200315567 3.149838177e-06 0)
(0.0002206521888 3.665728596e-06 0)
(0.0002213438046 4.093005686e-06 0)
(0.0002220900637 4.430271781e-06 0)
(0.0002228749837 4.679010461e-06 0)
(0.00022368356 4.843445919e-06 0)
(0.0002245029304 4.929949845e-06 0)
(0.0002253227816 4.946207806e-06 0)
(0.0002261351346 4.900558837e-06 0)
(0.0002269340322 4.801575693e-06 0)
(0.000227715333 4.657747815e-06 0)
(0.0002284765319 4.477197871e-06 0)
(0.0002292165263 4.267458537e-06 0)
(0.0002299353425 4.035335538e-06 0)
(0.0002306338737 3.786845941e-06 0)
(0.0002313136511 3.527209025e-06 0)
(0.0002319766452 3.260874937e-06 0)
(0.0002326250939 2.99158221e-06 0)
(0.0002332613576 2.722435437e-06 0)
(0.0002338878038 2.455993149e-06 0)
(0.0002345067191 2.194358967e-06 0)
(0.0002351202432 1.939272485e-06 0)
(0.0002357303221 1.692193246e-06 0)
(0.0002363386806 1.454371753e-06 0)
(0.0002369468032 1.22691735e-06 0)
(0.0002375559237 1.010848714e-06 0)
(0.0002381670132 8.071669419e-07 0)
(0.0002387807837 6.168656995e-07 0)
(0.0002393977086 4.40940299e-07 0)
(0.0002400180214 2.804305061e-07 0)
(0.0002406416976 1.364267152e-07 0)
(0.0002412684454 1.006710335e-08 0)
(0.0002418977352 -9.746402137e-08 0)
(0.0002425288131 -1.849635753e-07 0)
(0.0002431606861 -2.512339241e-07 0)
(0.0002437921206 -2.951025474e-07 0)
(0.0002444216569 -3.154523384e-07 0)
(0.0002450476174 -3.112569208e-07 0)
(0.0002456681131 -2.81618077e-07 0)
(0.0002462810676 -2.258031246e-07 0)
(0.0002468842467 -1.432767487e-07 0)
(0.0002474752739 -3.373817209e-08 0)
(0.0002480516556 1.028382219e-07 0)
(0.0002486108267 2.661721307e-07 0)
(0.0002491501878 4.556538964e-07 0)
(0.0002496671659 6.703365494e-07 0)
(0.000218673651 3.030967125e-07 0)
(0.0002187811465 9.033710124e-07 0)
(0.0002190063734 1.481118634e-06 0)
(0.0002193479796 2.018044538e-06 0)
(0.0002197872931 2.500097885e-06 0)
(0.0002203063903 2.918423194e-06 0)
(0.0002208913468 3.268026101e-06 0)
(0.0002215294731 3.546648758e-06 0)
(0.0002222079807 3.754364637e-06 0)
(0.0002229146478 3.893385938e-06 0)
(0.0002236387336 3.967691861e-06 0)
(0.0002243713136 3.982507741e-06 0)
(0.0002251052039 3.943824202e-06 0)
(0.0002258348022 3.858035165e-06 0)
(0.000226555965 3.731656842e-06 0)
(0.0002272658856 3.571088156e-06 0)
(0.0002279629328 3.382415789e-06 0)
(0.0002286464605 3.171278141e-06 0)
(0.0002293166143 2.942786355e-06 0)
(0.0002299741546 2.701491122e-06 0)
(0.0002306202973 2.451383454e-06 0)
(0.0002312565735 2.195921064e-06 0)
(0.0002318847065 1.938076109e-06 0)
(0.0002325065096 1.680394674e-06 0)
(0.0002331238062 1.425058078e-06 0)
(0.0002337383663 1.17395043e-06 0)
(0.0002343518489 9.28733524e-07 0)
(0.0002349657671 6.908956999e-07 0)
(0.0002355814581 4.618147303e-07 0)
(0.0002362000964 2.427956175e-07 0)
(0.0002368226562 3.509542014e-08 0)
(0.000237449837 -1.600090312e-07 0)
(0.0002380821206 -3.411932073e-07 0)
(0.0002387197809 -5.071036047e-07 0)
(0.0002393628376 -6.563498622e-07 0)
(0.0002400110652 -7.874825979e-07 0)
(0.0002406639827 -8.990001542e-07 0)
(0.0002413208302 -9.893832026e-07 0)
(0.0002419805774 -1.057118433e-06 0)
(0.0002426419288 -1.100719727e-06 0)
(0.0002433033176 -1.118762009e-06 0)
(0.0002439629088 -1.109922277e-06 0)
(0.000244618612 -1.073019425e-06 0)
(0.0002452680955 -1.007056619e-06 0)
(0.0002459087997 -9.112725258e-07 0)
(0.0002465379638 -7.851883206e-07 0)
(0.0002471526698 -6.28644817e-07 0)
(0.0002477498888 -4.418376313e-07 0)
(0.0002483265357 -2.253526509e-07 0)
(0.0002488795041 1.981671975e-08 0)
(0.0002186713551 2.357747151e-07 0)
(0.0002187606889 7.032137936e-07 0)
(0.0002189480655 1.154228167e-06 0)
(0.0002192333456 1.575062991e-06 0)
(0.0002196026104 1.954736013e-06 0)
(0.0002200425909 2.285735638e-06 0)
(0.0002205429231 2.563249915e-06 0)
(0.0002210938028 2.784563033e-06 0)
(0.0002216850447 2.948844056e-06 0)
(0.0002223067443 3.057004732e-06 0)
(0.0002229500306 3.111432689e-06 0)
(0.0002236073275 3.115629854e-06 0)
(0.0002242723297 3.073859093e-06 0)
(0.0002249399361 2.990852939e-06 0)
(0.0002256061981 2.871577637e-06 0)
(0.00022626825 2.721033494e-06 0)
(0.000226924204 2.544089248e-06 0)
(0.0002275730182 2.345357959e-06 0)
(0.000228214359 2.129113279e-06 0)
(0.0002288484681 1.899248192e-06 0)
(0.0002294760379 1.659263155e-06 0)
(0.0002300980987 1.412269825e-06 0)
(0.0002307159189 1.161018978e-06 0)
(0.0002313309096 9.079504901e-07 0)
(0.0002319445508 6.552272789e-07 0)
(0.000232558346 4.047936966e-07 0)
(0.0002331737582 1.584025811e-07 0)
(0.0002337921648 -8.23050088e-08 0)
(0.0002344148271 -3.157694631e-07 0)
(0.0002350428281 -5.404561808e-07 0)
(0.0002356771002 -7.548588024e-07 0)
(0.0002363184353 -9.574438698e-07 0)
(0.0002369673946 -1.146609504e-06 0)
(0.0002376242784 -1.320704149e-06 0)
(0.0002382891604 -1.478014112e-06 0)
(0.0002389618678 -1.616757991e-06 0)
(0.0002396419364 -1.735107415e-06 0)
(0.000240328603 -1.831198567e-06 0)
(0.0002410208057 -1.903152827e-06 0)
(0.0002417171686 -1.949113776e-06 0)
(0.0002424159904 -1.967288133e-06 0)
(0.0002431152446 -1.955989672e-06 0)
(0.0002438125843 -1.91368911e-06 0)
(0.0002445053542 -1.839068965e-06 0)
(0.0002451906137 -1.731077791e-06 0)
(0.0002458651683 -1.588980555e-06 0)
(0.0002465256077 -1.412409876e-06 0)
(0.0002471683535 -1.201417704e-06 0)
(0.0002477897188 -9.565176421e-07 0)
(0.0002483859748 -6.787273439e-07 0)
(0.0002186695984 1.794445602e-07 0)
(0.0002187450583 5.355241633e-07 0)
(0.0002189034668 8.794913025e-07 0)
(0.0002191453391 1.200827269e-06 0)
(0.0002194599735 1.49089167e-06 0)
(0.0002198373218 1.743427667e-06 0)
(0.0002202696269 1.954079048e-06 0)
(0.0002207493576 2.120070346e-06 0)
(0.000221268451 2.240122178e-06 0)
(0.0002218189113 2.314356408e-06 0)
(0.0002223934457 2.344096336e-06 0)
(0.0002229856821 2.331609156e-06 0)
(0.0002235901707 2.279854705e-06 0)
(0.0002242023707 2.192267115e-06 0)
(0.000224818645 2.072567257e-06 0)
(0.0002254362306 1.924600234e-06 0)
(0.0002260531733 1.752198385e-06 0)
(0.0002266682371 1.55907889e-06 0)
(0.0002272808103 1.348747847e-06 0)
(0.0002278908138 1.124470744e-06 0)
(0.0002284985969 8.892611821e-07 0)
(0.0002291048452 6.458606801e-07 0)
(0.000229710518 3.967638703e-07 0)
(0.0002303167579 1.442236833e-07 0)
(0.0002309248208 -1.09685159e-07 0)
(0.0002315360074 -3.630412412e-07 0)
(0.0002321516292 -6.140385518e-07 0)
(0.0002327729854 -8.609410956e-07 0)
(0.0002334013045 -1.102058775e-06 0)
(0.000234037711 -1.33569879e-06 0)
(0.0002346831857 -1.560123294e-06 0)
(0.0002353385517 -1.773552339e-06 0)
(0.0002360044338 -1.97414737e-06 0)
(0.0002366812351 -2.159971511e-06 0)
(0.0002373691198 -2.328985789e-06 0)
(0.0002380679785 -2.479065585e-06 0)
(0.0002387773987 -2.60800836e-06 0)
(0.0002394966428 -2.713547336e-06 0)
(0.0002402246245 -2.79338411e-06 0)
(0.0002409598885 -2.845229582e-06 0)
(0.0002417005958 -2.866848391e-06 0)
(0.0002424445146 -2.856111058e-06 0)
(0.0002431890207 -2.811053489e-06 0)
(0.0002439311056 -2.729940503e-06 0)
(0.000244667397 -2.611332794e-06 0)
(0.0002453941877 -2.454156045e-06 0)
(0.0002461074801 -2.257767826e-06 0)
(0.0002468030433 -2.02201879e-06 0)
(0.0002474764828 -1.747306625e-06 0)
(0.0002481233195 -1.43462115e-06 0)
(0.0002186682235 1.315903901e-07 0)
(0.0002187328387 3.92917292e-07 0)
(0.0002188685697 6.452542984e-07 0)
(0.0002190762845 8.804423548e-07 0)
(0.000219347549 1.091641494e-06 0)
(0.0002196746068 1.273699109e-06 0)
(0.0002200516101 1.422812797e-06 0)
(0.0002204727736 1.536349269e-06 0)
(0.0002209317162 1.612830141e-06 0)
(0.0002214219844 1.651882238e-06 0)
(0.0002219375969 1.654097883e-06 0)
(0.0002224732314 1.620853657e-06 0)
(0.0002230242386 1.554134522e-06 0)
(0.0002235866528 1.456374766e-06 0)
(0.0002241572141 1.330310714e-06 0)
(0.0002247333665 1.178849464e-06 0)
(0.0002253132294 1.004949606e-06 0)
(0.0002258955145 8.115896511e-07 0)
(0.000226479474 6.015807858e-07 0)
(0.0002270648694 3.776208914e-07 0)
(0.0002276518576 1.422349564e-07 0)
(0.0002282409214 -1.02213225e-07 0)
(0.0002288328035 -3.535216494e-07 0)
(0.0002294284578 -6.096350494e-07 0)
(0.0002300290074 -8.686134685e-07 0)
(0.0002306356701 -1.128613199e-06 0)
(0.0002312497183 -1.387829239e-06 0)
(0.0002318724231 -1.644490818e-06 0)
(0.0002325050261 -1.896816973e-06 0)
(0.0002331487006 -2.142992418e-06 0)
(0.0002338045105 -2.381128414e-06 0)
(0.0002344733848 -2.609242302e-06 0)
(0.0002351560795 -2.825236895e-06 0)
(0.0002358531335 -3.026880849e-06 0)
(0.0002365648354 -3.211807504e-06 0)
(0.0002372911886 -3.377519779e-06 0)
(0.0002380318711 -3.521400863e-06 0)
(0.0002387861966 -3.640736962e-06 0)
(0.0002395530808 -3.732750801e-06 0)
(0.0002403310113 -3.794644604e-06 0)
(0.0002411180216 -3.823653121e-06 0)
(0.0002419116727 -3.81710651e-06 0)
(0.0002427090435 -3.772501779e-06 0)
(0.0002435067344 -3.687581225e-06 0)
(0.0002443008829 -3.560416074e-06 0)
(0.0002450871959 -3.389491896e-06 0)
(0.0002458609983 -3.173792098e-06 0)
(0.000246617298 -2.912876961e-06 0)
(0.0002473508671 -2.606954871e-06 0)
(0.0002480563377 -2.256941152e-06 0)
(0.0002186671236 9.041615786e-08 0)
(0.0002187230805 2.70108296e-07 0)
(0.0002188406961 4.431265672e-07 0)
(0.0002190210187 6.030746505e-07 0)
(0.0002192572581 7.445028384e-07 0)
(0.0002195433197 8.631793098e-07 0)
(0.0002198747587 9.55835347e-07 0)
(0.0002202471193 1.02005645e-06 0)
(0.0002206553448 1.05430947e-06 0)
(0.0002210942253 1.057931035e-06 0)
(0.0002215588664 1.031027414e-06 0)
(0.000222044849 9.743449116e-07 0)
(0.0002225482487 8.891469913e-07 0)
(0.000223065655 7.771048181e-07 0)
(0.0002235942047 6.401783665e-07 0)
(0.0002241315925 4.805214118e-07 0)
(0.0002246761317 3.003923783e-07 0)
(0.0002252265769 1.020129616e-07 0)
(0.0002257821283 -1.12342606e-07 0)
(0.0002263424971 -3.404988493e-07 0)
(0.0002269077417 -5.80387185e-07 0)
(0.0002274782524 -8.300210398e-07 0)
(0.0002280546936 -1.087509347e-06 0)
(0.0002286379548 -1.351022082e-06 0)
(0.0002292290929 -1.618795022e-06 0)
(0.0002298292978 -1.889093271e-06 0)
(0.0002304398453 -2.16018894e-06 0)
(0.0002310620521 -2.430325941e-06 0)
(0.000231697243 -2.697687097e-06 0)
(0.0002323467095 -2.960367105e-06 0)
(0.0002330116643 -3.216339634e-06 0)
(0.0002336932026 -3.46343192e-06 0)
(0.0002343922607 -3.699306919e-06 0)
(0.0002351095676 -3.921446273e-06 0)
(0.0002358455984 -4.127141697e-06 0)
(0.0002366005262 -4.313498392e-06 0)
(0.0002373741709 -4.477448495e-06 0)
(0.0002381659487 -4.615774608e-06 0)
(0.0002389748237 -4.725145633e-06 0)
(0.0002397992624 -4.802166075e-06 0)
(0.0002406371939 -4.843438184e-06 0)
(0.0002414859784 -4.845636384e-06 0)
(0.0002423423872 -4.805593363e-06 0)
(0.0002432025969 -4.720396124e-06 0)
(0.0002440622008 -4.587489482e-06 0)
(0.0002449162391 -4.404783821e-06 0)
(0.000245759252 -4.170763067e-06 0)
(0.0002465853532 -3.88458781e-06 0)
(0.0002473883266 -3.546188322e-06 0)
(0.0002481617421 -3.156342678e-06 0)
(0.0002186662211 5.461649532e-08 0)
(0.0002187151151 1.632639096e-07 0)
(0.0002188179761 2.669904034e-07 0)
(0.0002189759271 3.607231711e-07 0)
(0.0002191833927 4.400889365e-07 0)
(0.0002194355013 5.016134886e-07 0)
(0.0002197288438 5.425144577e-07 0)
(0.0002200599771 5.606262638e-07 0)
(0.0002204248927 5.54444702e-07 0)
(0.0002208193874 5.231491887e-07 0)
(0.0002212394591 4.665268542e-07 0)
(0.0002216814521 3.848744898e-07 0)
(0.0002221420852 2.789177017e-07 0)
(0.0002226184648 1.497242711e-07 0)
(0.0002231081281 -1.364554031e-09 0)
(0.0002236090842 -1.728202857e-07 0)
(0.0002241197287 -3.629923306e-07 0)
(0.0002246389784 -5.702320228e-07 0)
(0.0002251662037 -7.92794743e-07 0)
(0.0002257010684 -1.028988755e-06 0)
(0.0002262436309 -1.277155945e-06 0)
(0.0002267942708 -1.535683674e-06 0)
(0.0002273536367 -1.802991889e-06 0)
(0.0002279226132 -2.077525061e-06 0)
(0.0002285022804 -2.357727957e-06 0)
(0.000229093877 -2.64202272e-06 0)
(0.0002296987604 -2.928783594e-06 0)
(0.000230318365 -3.216303573e-06 0)
(0.0002309541643 -3.5027644e-06 0)
(0.0002316076295 -3.786207716e-06 0)
(0.0002322801849 -4.064502831e-06 0)
(0.0002329731618 -4.335316613e-06 0)
(0.0002336877488 -4.596089848e-06 0)
(0.0002344249373 -4.844018029e-06 0)
(0.0002351854632 -5.076039807e-06 0)
(0.0002359697462 -5.288836762e-06 0)
(0.0002367778249 -5.478844804e-06 0)
(0.0002376092903 -5.642278418e-06 0)
(0.0002384632202 -5.775169707e-06 0)
(0.0002393381161 -5.87342322e-06 0)
(0.0002402318449 -5.932887075e-06 0)
(0.0002411415907 -5.949440611e-06 0)
(0.0002420638184 -5.919098008e-06 0)
(0.0002429942555 -5.83812614e-06 0)
(0.0002439278945 -5.703173853e-06 0)
(0.0002448590203 -5.511408721e-06 0)
(0.0002457812655 -5.260656049e-06 0)
(0.0002466876948 -4.949533373e-06 0)
(0.0002475709193 -4.57757332e-06 0)
(0.0002484232355 -4.145328158e-06 0)
(0.0002186654749 2.312979055e-08 0)
(0.0002187085165 6.935149996e-08 0)
(0.0002187991198 1.120836909e-07 0)
(0.0002189384236 1.472119543e-07 0)
(0.000219121792 1.711782296e-07 0)
(0.0002193452864 1.811132795e-07 0)
(0.0002196062737 1.746466621e-07 0)
(0.0002199020751 1.498642621e-07 0)
(0.000220229503 1.053555891e-07 0)
(0.0002205851678 4.020785818e-08 0)
(0.000220965796 -4.602059386e-08 0)
(0.0002213683718 -1.533540606e-07 0)
(0.0002217901585 -2.814693515e-07 0)
(0.0002222287278 -4.297610061e-07 0)
(0.0002226819984 -5.973876539e-07 0)
(0.0002231482564 -7.833401973e-07 0)
(0.0002236261702 -9.864997549e-07 0)
(0.0002241148108 -1.205624366e-06 0)
(0.0002246136226 -1.439507833e-06 0)
(0.000225122382 -1.686906386e-06 0)
(0.0002256412029 -1.946570415e-06 0)
(0.0002261705102 -2.217254488e-06 0)
(0.0002267110099 -2.49770385e-06 0)
(0.000227263656 -2.78664104e-06 0)
(0.0002278296165 -3.082744728e-06 0)
(0.0002284102434 -3.384625245e-06 0)
(0.0002290070396 -3.690797429e-06 0)
(0.0002296216213 -3.999649107e-06 0)
(0.0002302556783 -4.309407249e-06 0)
(0.0002309109339 -4.618103557e-06 0)
(0.0002315890984 -4.92353868e-06 0)
(0.0002322918186 -5.223247263e-06 0)
(0.0002330206215 -5.51446723e-06 0)
(0.0002337768508 -5.794114474e-06 0)
(0.0002345615985 -6.058765562e-06 0)
(0.0002353756291 -6.304651812e-06 0)
(0.0002362192994 -6.527666659e-06 0)
(0.0002370924733 -6.723388169e-06 0)
(0.0002379944354 -6.887118945e-06 0)
(0.0002389238053 -7.013945427e-06 0)
(0.000239878456 -7.098818168e-06 0)
(0.0002408554422 -7.136654023e-06 0)
(0.0002418509421 -7.122460232e-06 0)
(0.0002428602205 -7.051478926e-06 0)
(0.0002438776173 -6.91934877e-06 0)
(0.0002448965678 -6.722278751e-06 0)
(0.0002459096584 -6.457227646e-06 0)
(0.0002469087217 -6.122080775e-06 0)
(0.0002478849708 -5.715813905e-06 0)
(0.0002488291714 -5.238633957e-06 0)
(0.0002186648926 -4.603320484e-09 0)
(0.0002187031283 -1.347486662e-08 0)
(0.0002187834077 -2.475550254e-08 0)
(0.0002189068648 -4.178387146e-08 0)
(0.0002190696531 -6.747651809e-08 0)
(0.0002192685676 -1.042232554e-07 0)
(0.0002195015725 -1.540430871e-07 0)