/*--------------------------------*- C++ -*----------------------------------*\
| =========                 |                                                 |
| \\      /  F ield         | foam-extend: Open Source CFD                    |
|  \\    /   O peration     | Version:     4.1                                |
|   \\  /    A nd           | Web:         http://www.foam-extend.org         |
|    \\/     M anipulation  |                                                 |
\*---------------------------------------------------------------------------*/
FoamFile
{
    version     2.0;
    format      ascii;
    class       volVectorField;
    location    "140000";
    object      vorticity;
}
// * * * * * * * * * * * * * * * * * * * * * * * * * * * * * * * * * * * * * //

dimensions      [0 0 -1 0 0 0 0];

internalField   nonuniform List<vector> 
15920
(
(0 -0 -0.008256669097)
(0 -0 -0.008405541437)
(0 -0 -0.008449514113)
(0 -0 -0.008324494449)
(0 -0 -0.008113777568)
(0 -0 -0.007875414626)
(0 -0 -0.007620330252)
(0 -0 -0.007349748744)
(0 -0 -0.007072141538)
(0 -0 -0.006798381352)
(0 -0 -0.006536066276)
(0 -0 -0.006289375125)
(0 -0 -0.006060674399)
(0 -0 -0.005851239808)
(0 -0 -0.005661346425)
(0 -0 -0.005490426771)
(0 -0 -0.005337361453)
(0 -0 -0.005200735768)
(0 -0 -0.005079007147)
(0 -0 -0.004970613289)
(0 -0 -0.004874046899)
(0 -0 -0.004787904085)
(0 -0 -0.004710910191)
(0 -0 -0.004641928277)
(0 -0 -0.004579956464)
(0 -0 -0.004524121025)
(0 -0 -0.004473665182)
(0 -0 -0.004427935828)
(0 -0 -0.004386369711)
(0 -0 -0.004348480048)
(0 -0 -0.004313844077)
(0 -0 -0.004282091846)
(0 -0 -0.004252896297)
(0 -0 -0.004225964692)
(0 -0 -0.004201031299)
(0 -0 -0.004177851389)
(0 -0 -0.004156196563)
(0 -0 -0.004135851142)
(0 -0 -0.004116609077)
(0 -0 -0.004098271219)
(0 -0 -0.004080643407)
(0 -0 -0.004063535685)
(0 -0 -0.004046762311)
(0 -0 -0.004030142083)
(0 -0 -0.004013498835)
(0 -0 -0.003996662128)
(0 -0 -0.003979468128)
(0 -0 -0.003961760636)
(0 -0 -0.003943392263)
(0 -0 -0.003924225691)
(0 -0 0.000353743219)
(0 -0 -9.704924124e-06)
(0 -0 -0.0003974485914)
(0 -0 -0.0007984208174)
(0 -0 -0.001195847913)
(0 -0 -0.001573531766)
(0 -0 -0.001922362747)
(0 -0 -0.002237301931)
(0 -0 -0.002514396672)
(0 -0 -0.002751409292)
(0 -0 -0.002948689449)
(0 -0 -0.00310869322)
(0 -0 -0.003234995996)
(0 -0 -0.00333163366)
(0 -0 -0.003402777994)
(0 -0 -0.003452510238)
(0 -0 -0.003484631883)
(0 -0 -0.003502545991)
(0 -0 -0.003509212544)
(0 -0 -0.003507150491)
(0 -0 -0.00349846318)
(0 -0 -0.003484876202)
(0 -0 -0.003467782246)
(0 -0 -0.003448288765)
(0 -0 -0.003427263769)
(0 -0 -0.003405377182)
(0 -0 -0.003383137638)
(0 -0 -0.003360924597)
(0 -0 -0.003339015677)
(0 -0 -0.003317609394)
(0 -0 -0.003296843701)
(0 -0 -0.003276810851)
(0 -0 -0.003257569115)
(0 -0 -0.003239151849)
(0 -0 -0.003221574391)
(0 -0 -0.003204839217)
(0 -0 -0.003188939727)
(0 -0 -0.003173862973)
(0 -0 -0.003159591428)
(0 -0 -0.003146104015)
(0 -0 -0.003133376707)
(0 -0 -0.003121382991)
(0 -0 -0.003110094225)
(0 -0 -0.003099479806)
(0 -0 -0.003089507093)
(0 -0 -0.003080141148)
(0 -0 -0.003071344461)
(0 -0 -0.003063076732)
(0 -0 -0.003055294785)
(0 -0 -0.003047952564)
(0 -0 0.0001735450101)
(0 -0 0.0002524183927)
(0 -0 0.0003161778651)
(0 -0 0.0003438417038)
(0 -0 0.0003297261743)
(0 -0 0.0002760222671)
(0 -0 0.0001891735671)
(0 -0 7.70305373e-05)
(0 -0 -5.256103116e-05)
(0 -0 -0.000192375612)
(0 -0 -0.0003362223441)
(0 -0 -0.000479180228)
(0 -0 -0.0006176075951)
(0 -0 -0.0007489981871)
(0 -0 -0.000871792018)
(0 -0 -0.0009851813871)
(0 -0 -0.001088924402)
(0 -0 -0.001183178485)
(0 -0 -0.001268363545)
(0 -0 -0.001345056551)
(0 -0 -0.001413913944)
(0 -0 -0.001475617155)
(0 -0 -0.001530835935)
(0 -0 -0.001580205523)
(0 -0 -0.001624315528)
(0 -0 -0.001663705051)
(0 -0 -0.001698862037)
(0 -0 -0.001730225321)
(0 -0 -0.00175818827)
(0 -0 -0.001783103173)
(0 -0 -0.00180528587)
(0 -0 -0.001825020255)
(0 -0 -0.001842562462)
(0 -0 -0.001858144626)
(0 -0 -0.001871978174)
(0 -0 -0.001884256653)
(0 -0 -0.001895158127)
(0 -0 -0.001904847134)
(0 -0 -0.001913476286)
(0 -0 -0.001921187545)
(0 -0 -0.001928113262)
(0 -0 -0.001934377004)
(0 -0 -0.001940094214)
(0 -0 -0.001945372688)
(0 -0 -0.001950312904)
(0 -0 -0.001955008201)
(0 -0 -0.001959544871)
(0 -0 -0.001964002188)
(0 -0 -0.001968452403)
(0 -0 -0.001972960714)
(0 -0 0.0001466238366)
(0 -0 0.0001494915479)
(0 -0 0.0001603274222)
(0 -0 0.0001793760242)
(0 -0 0.0002040824574)
(0 -0 0.0002302843483)
(0 -0 0.0002535352768)
(0 -0 0.0002702688172)
(0 -0 0.0002782133606)
(0 -0 0.0002763390152)
(0 -0 0.0002646464054)
(0 -0 0.0002438906252)
(0 -0 0.0002152861642)
(0 -0 0.0001802525833)
(0 -0 0.0001402316541)
(0 -0 9.657048325e-05)
(0 -0 5.04568509e-05)
(0 -0 2.892962898e-06)
(0 -0 -4.530487969e-05)
(0 -0 -9.349128835e-05)
(0 -0 -0.0001411693604)
(0 -0 -0.0001879660647)
(0 -0 -0.0002336084329)
(0 -0 -0.0002779023483)
(0 -0 -0.0003207150506)
(0 -0 -0.000361960667)
(0 -0 -0.000401588823)
(0 -0 -0.000439575941)
(0 -0 -0.0004759187233)
(0 -0 -0.0005106293578)
(0 -0 -0.0005437320502)
(0 -0 -0.0005752605506)
(0 -0 -0.0006052563967)
(0 -0 -0.0006337676579)
(0 -0 -0.0006608480129)
(0 -0 -0.0006865560369)
(0 -0 -0.0007109546089)
(0 -0 -0.0007341103785)
(0 -0 -0.0007560932583)
(0 -0 -0.0007769759219)
(0 -0 -0.0007968333047)
(0 -0 -0.0008157421006)
(0 -0 -0.0008337802526)
(0 -0 -0.0008510264367)
(0 -0 -0.0008675595346)
(0 -0 -0.0008834581003)
(0 -0 -0.0008987998254)
(0 -0 -0.0009136610445)
(0 -0 -0.0009281162613)
(0 -0 -0.000942237699)
(0 -0 0.0001024125285)
(0 -0 0.000103403581)
(0 -0 0.0001046953915)
(0 -0 0.0001067991164)
(0 -0 0.0001104659654)
(0 -0 0.0001163183865)
(0 -0 0.0001245755067)
(0 -0 0.0001349828089)
(0 -0 0.0001469044585)
(0 -0 0.0001594788243)
(0 -0 0.000171783575)
(0 -0 0.0001829761561)
(0 -0 0.0001923828598)
(0 -0 0.0001995329536)
(0 -0 0.0002041535396)
(0 -0 0.0002061422343)
(0 -0 0.0002055301076)
(0 -0 0.0002024435039)
(0 -0 0.000197070032)
(0 -0 0.0001896312065)
(0 -0 0.0001803621128)
(0 -0 0.0001694973248)
(0 -0 0.000157261879)
(0 -0 0.0001438660749)
(0 -0 0.0001295029618)
(0 -0 0.0001143475911)
(0 -0 9.85573662e-05)
(0 -0 8.227299322e-05)
(0 -0 6.561969853e-05)
(0 -0 4.870850204e-05)
(0 -0 3.16374285e-05)
(0 -0 1.449259625e-05)
(0 -0 -2.650837894e-06)
(0 -0 -1.972787374e-05)
(0 -0 -3.668298316e-05)
(0 -0 -5.346951812e-05)
(0 -0 -7.004918226e-05)
(0 -0 -8.639154273e-05)
(0 -0 -0.0001024735608)
(0 -0 -0.0001182791276)
(0 -0 -0.000133798597)
(0 -0 -0.0001490283104)
(0 -0 -0.0001639701111)
(0 -0 -0.0001786308466)
(0 -0 -0.0001930218561)
(0 -0 -0.000207158451)
(0 -0 -0.0002210593951)
(0 -0 -0.0002347463973)
(0 -0 -0.0002482436116)
(0 -0 -0.0002615771544)
(0 -0 7.857709794e-05)
(0 -0 7.893037059e-05)
(0 -0 7.938441373e-05)
(0 -0 7.989136269e-05)
(0 -0 8.045629856e-05)
(0 -0 8.116127231e-05)
(0 -0 8.21569531e-05)
(0 -0 8.362527705e-05)
(0 -0 8.572913517e-05)
(0 -0 8.856945708e-05)
(0 -0 9.216296422e-05)
(0 -0 9.644262645e-05)
(0 -0 0.000101274338)
(0 -0 0.0001064808944)
(0 -0 0.0001118663275)
(0 -0 0.000117236559)
(0 -0 0.0001224143902)
(0 -0 0.0001272484882)
(0 -0 0.0001316172248)
(0 -0 0.0001354287617)
(0 -0 0.000138618767)
(0 -0 0.0001411468759)
(0 -0 0.0001429927021)
(0 -0 0.0001441519337)
(0 -0 0.0001446328166)
(0 -0 0.0001444531518)
(0 -0 0.0001436378217)
(0 -0 0.000142216803)
(0 -0 0.0001402236007)
(0 -0 0.0001376940239)
(0 -0 0.0001346652286)
(0 -0 0.0001311749643)
(0 -0 0.0001272609649)
(0 -0 0.0001229604451)
(0 -0 0.0001183096714)
(0 -0 0.0001133435924)
(0 -0 0.0001080955176)
(0 -0 0.000102596842)
(0 -0 9.687681581e-05)
(0 -0 9.096235798e-05)
(0 -0 8.487791269e-05)
(0 -0 7.864534954e-05)
(0 -0 7.228390197e-05)
(0 -0 6.581014273e-05)
(0 -0 5.9237996e-05)
(0 -0 5.257879076e-05)
(0 -0 4.584135026e-05)
(0 -0 3.903210421e-05)
(0 -0 3.215521935e-05)
(0 -0 2.521275022e-05)
(0 -0 6.161714061e-05)
(0 -0 6.18664889e-05)
(0 -0 6.220056907e-05)
(0 -0 6.260412719e-05)
(0 -0 6.306055656e-05)
(0 -0 6.355002516e-05)
(0 -0 6.405496769e-05)
(0 -0 6.457003682e-05)
(0 -0 6.510833321e-05)
(0 -0 6.569976577e-05)
(0 -0 6.638398133e-05)
(0 -0 6.72019066e-05)
(0 -0 6.818826226e-05)
(0 -0 6.936615636e-05)
(0 -0 7.074434267e-05)
(0 -0 7.231712391e-05)
(0 -0 7.406624021e-05)
(0 -0 7.596382603e-05)
(0 -0 7.797565249e-05)
(0 -0 8.006413842e-05)
(0 -0 8.21908535e-05)
(0 -0 8.43184125e-05)
(0 -0 8.641177945e-05)
(0 -0 8.843907349e-05)
(0 -0 9.037199068e-05)
(0 -0 9.218595137e-05)
(0 -0 9.386006306e-05)
(0 -0 9.537696933e-05)
(0 -0 9.672263899e-05)
(0 -0 9.788613079e-05)
(0 -0 9.885935178e-05)
(0 -0 9.963681923e-05)
(0 -0 0.0001002154236)
(0 -0 0.0001005941901)
(0 -0 0.0001007740375)
(0 -0 0.0001007575428)
(0 -0 0.0001005486979)
(0 -0 0.0001001526771)
(0 -0 9.957561632e-05)
(0 -0 9.88243966e-05)
(0 -0 9.790644454e-05)
(0 -0 9.682954737e-05)
(0 -0 9.560165138e-05)
(0 -0 9.423067916e-05)
(0 -0 9.272438281e-05)
(0 -0 9.109023038e-05)
(0 -0 8.933530687e-05)
(0 -0 8.746621568e-05)
(0 -0 8.54889846e-05)
(0 -0 8.340898828e-05)
(0 -0 4.859552598e-05)
(0 -0 4.879269924e-05)
(0 -0 4.905572564e-05)
(0 -0 4.937679835e-05)
(0 -0 4.975022263e-05)
(0 -0 5.016936288e-05)
(0 -0 5.062517353e-05)
(0 -0 5.110689003e-05)
(0 -0 5.160381541e-05)
(0 -0 5.210693752e-05)
(0 -0 5.26101374e-05)
(0 -0 5.311103295e-05)
(0 -0 5.361118642e-05)
(0 -0 5.411545741e-05)
(0 -0 5.463072673e-05)
(0 -0 5.516447124e-05)
(0 -0 5.572355832e-05)
(0 -0 5.631340385e-05)
(0 -0 5.693749487e-05)
(0 -0 5.759721977e-05)
(0 -0 5.829192542e-05)
(0 -0 5.901911931e-05)
(0 -0 5.97747468e-05)
(0 -0 6.055349634e-05)
(0 -0 6.134910205e-05)
(0 -0 6.215462573e-05)
(0 -0 6.296270945e-05)
(0 -0 6.376579666e-05)
(0 -0 6.455632608e-05)
(0 -0 6.532690393e-05)
(0 -0 6.607045071e-05)
(0 -0 6.678033779e-05)
(0 -0 6.74504863e-05)
(0 -0 6.807537118e-05)
(0 -0 6.865010617e-05)
(0 -0 6.917058167e-05)
(0 -0 6.963341635e-05)
(0 -0 7.003593297e-05)
(0 -0 7.037614231e-05)
(0 -0 7.065272453e-05)
(0 -0 7.086499588e-05)
(0 -0 7.101287766e-05)
(0 -0 7.109687134e-05)
(0 -0 7.111801837e-05)
(0 -0 7.10778176e-05)
(0 -0 7.097811806e-05)
(0 -0 7.082102124e-05)
(0 -0 7.060880524e-05)
(0 -0 7.034380135e-05)
(0 -0 7.002824761e-05)
(0 -0 3.843353509e-05)
(0 -0 3.859327242e-05)
(0 -0 3.880652311e-05)
(0 -0 3.906745109e-05)
(0 -0 3.937189268e-05)
(0 -0 3.971587625e-05)
(0 -0 4.009491752e-05)
(0 -0 4.050396129e-05)
(0 -0 4.093751998e-05)
(0 -0 4.138970657e-05)
(0 -0 4.185436003e-05)
(0 -0 4.232541829e-05)
(0 -0 4.279739101e-05)
(0 -0 4.32656927e-05)
(0 -0 4.372675332e-05)
(0 -0 4.417798033e-05)
(0 -0 4.461766409e-05)
(0 -0 4.504486544e-05)
(0 -0 4.54592846e-05)
(0 -0 4.586111116e-05)
(0 -0 4.625086217e-05)
(0 -0 4.66292202e-05)
(0 -0 4.699688507e-05)
(0 -0 4.735445019e-05)
(0 -0 4.770231019e-05)
(0 -0 4.804060054e-05)
(0 -0 4.836916557e-05)
(0 -0 4.868755286e-05)
(0 -0 4.899503771e-05)
(0 -0 4.92906297e-05)
(0 -0 4.957312943e-05)
(0 -0 4.984131137e-05)
(0 -0 5.009391695e-05)
(0 -0 5.032978567e-05)
(0 -0 5.054781741e-05)
(0 -0 5.074690139e-05)
(0 -0 5.092599552e-05)
(0 -0 5.108417151e-05)
(0 -0 5.122065358e-05)
(0 -0 5.133485528e-05)
(0 -0 5.14264032e-05)
(0 -0 5.149514684e-05)
(0 -0 5.154119504e-05)
(0 -0 5.156495643e-05)
(0 -0 5.156712957e-05)
(0 -0 5.154863567e-05)
(0 -0 5.151056843e-05)
(0 -0 5.145419148e-05)
(0 -0 5.138100812e-05)
(0 -0 5.129280272e-05)
(0 -0 3.026894367e-05)
(0 -0 3.040780933e-05)
(0 -0 3.059364795e-05)
(0 -0 3.082171959e-05)
(0 -0 3.108839163e-05)
(0 -0 3.139016306e-05)
(0 -0 3.172326767e-05)
(0 -0 3.208367972e-05)
(0 -0 3.246720871e-05)
(0 -0 3.286949347e-05)
(0 -0 3.328604197e-05)
(0 -0 3.371239158e-05)
(0 -0 3.414428412e-05)
(0 -0 3.457773846e-05)
(0 -0 3.500902278e-05)
(0 -0 3.543461151e-05)
(0 -0 3.585119538e-05)
(0 -0 3.62557492e-05)
(0 -0 3.664561903e-05)
(0 -0 3.70185875e-05)
(0 -0 3.737289597e-05)
(0 -0 3.770722039e-05)
(0 -0 3.802061425e-05)
(0 -0 3.831243378e-05)
(0 -0 3.85822592e-05)
(0 -0 3.882983008e-05)
(0 -0 3.905490981e-05)
(0 -0 3.925734499e-05)
(0 -0 3.943701966e-05)
(0 -0 3.95939293e-05)
(0 -0 3.972814395e-05)
(0 -0 3.983975278e-05)
(0 -0 3.992891536e-05)
(0 -0 3.999594496e-05)
(0 -0 4.004126732e-05)
(0 -0 4.006529447e-05)
(0 -0 4.006846175e-05)
(0 -0 4.005124504e-05)
(0 -0 4.001419402e-05)
(0 -0 3.99579508e-05)
(0 -0 3.988326652e-05)
(0 -0 3.979102108e-05)
(0 -0 3.968221716e-05)
(0 -0 3.955794195e-05)
(0 -0 3.941936833e-05)
(0 -0 3.926780381e-05)
(0 -0 3.910472576e-05)
(0 -0 3.893176815e-05)
(0 -0 3.875073985e-05)
(0 -0 3.85637261e-05)
(0 -0 2.355576578e-05)
(0 -0 2.368310089e-05)
(0 -0 2.385436207e-05)
(0 -0 2.406550516e-05)
(0 -0 2.431320892e-05)
(0 -0 2.459421616e-05)
(0 -0 2.490508173e-05)
(0 -0 2.524216406e-05)
(0 -0 2.560163671e-05)
(0 -0 2.597944643e-05)
(0 -0 2.637138435e-05)
(0 -0 2.677329064e-05)
(0 -0 2.718124073e-05)
(0 -0 2.759159256e-05)
(0 -0 2.800091367e-05)
(0 -0 2.840589071e-05)
(0 -0 2.880330281e-05)
(0 -0 2.919006943e-05)
(0 -0 2.956333755e-05)
(0 -0 2.992056165e-05)
(0 -0 3.025954883e-05)
(0 -0 3.057846042e-05)
(0 -0 3.087578673e-05)
(0 -0 3.115024217e-05)
(0 -0 3.140078869e-05)
(0 -0 3.162656023e-05)
(0 -0 3.182692639e-05)
(0 -0 3.200133306e-05)
(0 -0 3.214929199e-05)
(0 -0 3.227047443e-05)
(0 -0 3.236471737e-05)
(0 -0 3.243193836e-05)
(0 -0 3.24722305e-05)
(0 -0 3.248579935e-05)
(0 -0 3.247300832e-05)
(0 -0 3.243440203e-05)
(0 -0 3.237066519e-05)
(0 -0 3.228261222e-05)
(0 -0 3.217117805e-05)
(0 -0 3.203742265e-05)
(0 -0 3.188253995e-05)
(0 -0 3.170786001e-05)
(0 -0 3.151484467e-05)
(0 -0 3.130507907e-05)
(0 -0 3.108026567e-05)
(0 -0 3.084222011e-05)
(0 -0 3.059286393e-05)
(0 -0 3.033421563e-05)
(0 -0 3.006831719e-05)
(0 -0 2.979712353e-05)
(0 -0 1.793684995e-05)
(0 -0 1.805817253e-05)
(0 -0 1.82224932e-05)
(0 -0 1.842623218e-05)
(0 -0 1.866623809e-05)
(0 -0 1.893936747e-05)
(0 -0 1.924232687e-05)
(0 -0 1.957166385e-05)
(0 -0 1.992372139e-05)
(0 -0 2.029455272e-05)
(0 -0 2.067999197e-05)
(0 -0 2.107588036e-05)
(0 -0 2.147827075e-05)
(0 -0 2.188347921e-05)
(0 -0 2.228800756e-05)
(0 -0 2.268844818e-05)
(0 -0 2.308145758e-05)
(0 -0 2.34638105e-05)
(0 -0 2.383249588e-05)
(0 -0 2.418480768e-05)
(0 -0 2.451835396e-05)
(0 -0 2.483111432e-05)
(0 -0 2.512138375e-05)
(0 -0 2.538781018e-05)
(0 -0 2.562924476e-05)
(0 -0 2.58446822e-05)
(0 -0 2.60333011e-05)
(0 -0 2.61943292e-05)
(0 -0 2.632707801e-05)
(0 -0 2.643093802e-05)
(0 -0 2.650545537e-05)
(0 -0 2.655040809e-05)
(0 -0 2.65658235e-05)
(0 -0 2.655193705e-05)
(0 -0 2.650914982e-05)
(0 -0 2.643801999e-05)
(0 -0 2.633926161e-05)
(0 -0 2.621373457e-05)
(0 -0 2.606244214e-05)
(0 -0 2.588653922e-05)
(0 -0 2.568733887e-05)
(0 -0 2.546631142e-05)
(0 -0 2.522507958e-05)
(0 -0 2.496541365e-05)
(0 -0 2.468922758e-05)
(0 -0 2.439857235e-05)
(0 -0 2.40956202e-05)
(0 -0 2.378264004e-05)
(0 -0 2.346197521e-05)
(0 -0 2.313602279e-05)
(0 -0 1.316218668e-05)
(0 -0 1.328115336e-05)
(0 -0 1.34435395e-05)
(0 -0 1.364608894e-05)
(0 -0 1.388572639e-05)
(0 -0 1.415932602e-05)
(0 -0 1.446361921e-05)
(0 -0 1.479519999e-05)
(0 -0 1.51504484e-05)
(0 -0 1.552541252e-05)
(0 -0 1.591587257e-05)
(0 -0 1.631757857e-05)
(0 -0 1.672646777e-05)
(0 -0 1.713871995e-05)
(0 -0 1.755067521e-05)
(0 -0 1.795873412e-05)
(0 -0 1.835933605e-05)
(0 -0 1.874898435e-05)
(0 -0 1.91244212e-05)
(0 -0 1.948268773e-05)
(0 -0 1.982124948e-05)
(0 -0 2.013794204e-05)
(0 -0 2.043094256e-05)
(0 -0 2.069876612e-05)
(0 -0 2.094010455e-05)
(0 -0 2.115379805e-05)
(0 -0 2.133873656e-05)
(0 -0 2.149397217e-05)
(0 -0 2.161869035e-05)
(0 -0 2.17122431e-05)
(0 -0 2.177418227e-05)
(0 -0 2.18042702e-05)
(0 -0 2.180249839e-05)
(0 -0 2.176908561e-05)
(0 -0 2.170445527e-05)
(0 -0 2.160921234e-05)
(0 -0 2.148412775e-05)
(0 -0 2.133013361e-05)
(0 -0 2.114832522e-05)
(0 -0 2.09399656e-05)
(0 -0 2.070649009e-05)
(0 -0 2.04495084e-05)
(0 -0 2.017080204e-05)
(0 -0 1.987231741e-05)
(0 -0 1.955615745e-05)
(0 -0 1.922457133e-05)
(0 -0 1.887993684e-05)
(0 -0 1.852473397e-05)
(0 -0 1.81615197e-05)
(0 -0 1.77929121e-05)
(0 -0 9.053160757e-06)
(0 -0 9.17223215e-06)
(0 -0 9.336030989e-06)
(0 -0 9.541553681e-06)
(0 -0 9.785743832e-06)
(0 -0 1.006542275e-05)
(0 -0 1.03772546e-05)
(0 -0 1.071778189e-05)
(0 -0 1.108333568e-05)
(0 -0 1.146988844e-05)
(0 -0 1.187310316e-05)
(0 -0 1.228857565e-05)
(0 -0 1.27120652e-05)
(0 -0 1.313954443e-05)
(0 -0 1.356713435e-05)
(0 -0 1.399099634e-05)
(0 -0 1.440730387e-05)
(0 -0 1.481234886e-05)
(0 -0 1.520261171e-05)
(0 -0 1.557490499e-05)
(0 -0 1.592647851e-05)
(0 -0 1.625495716e-05)
(0 -0 1.65583106e-05)
(0 -0 1.683475011e-05)
(0 -0 1.708275954e-05)
(0 -0 1.730101326e-05)
(0 -0 1.74883411e-05)
(0 -0 1.764370707e-05)
(0 -0 1.776620744e-05)
(0 -0 1.785510821e-05)
(0 -0 1.790989037e-05)
(0 -0 1.793027877e-05)
(0 -0 1.79162555e-05)
(0 -0 1.786805475e-05)
(0 -0 1.778613976e-05)
(0 -0 1.76711771e-05)
(0 -0 1.752401945e-05)
(0 -0 1.734569841e-05)
(0 -0 1.713742441e-05)
(0 -0 1.690059035e-05)
(0 -0 1.663677738e-05)
(0 -0 1.634776035e-05)
(0 -0 1.603550827e-05)
(0 -0 1.570217393e-05)
(0 -0 1.535007446e-05)
(0 -0 1.498167171e-05)
(0 -0 1.459955672e-05)
(0 -0 1.420643149e-05)
(0 -0 1.380508411e-05)
(0 -0 1.339836586e-05)
(0 -0 5.479984807e-06)
(0 -0 5.600627164e-06)
(0 -0 5.768008936e-06)
(0 -0 5.979365801e-06)
(0 -0 6.23157988e-06)
(0 -0 6.521302525e-06)
(0 -0 6.845017887e-06)
(0 -0 7.199139207e-06)
(0 -0 7.579909258e-06)
(0 -0 7.983204372e-06)
(0 -0 8.404541144e-06)
(0 -0 8.839314404e-06)
(0 -0 9.283047804e-06)
(0 -0 9.731487653e-06)
(0 -0 1.018051212e-05)
(0 -0 1.062602587e-05)
(0 -0 1.106393563e-05)
(0 -0 1.149026036e-05)
(0 -0 1.190119384e-05)
(0 -0 1.229327233e-05)
(0 -0 1.266340456e-05)
(0 -0 1.300894419e-05)
(0 -0 1.332763991e-05)
(0 -0 1.361757476e-05)
(0 -0 1.387708613e-05)
(0 -0 1.410469849e-05)
(0 -0 1.429909243e-05)
(0 -0 1.445909498e-05)
(0 -0 1.458369001e-05)
(0 -0 1.467205278e-05)
(0 -0 1.472359542e-05)
(0 -0 1.473800289e-05)
(0 -0 1.471524862e-05)
(0 -0 1.465558743e-05)
(0 -0 1.45595305e-05)
(0 -0 1.442781596e-05)
(0 -0 1.426138731e-05)
(0 -0 1.406138432e-05)
(0 -0 1.382914418e-05)
(0 -0 1.35662072e-05)
(0 -0 1.32743222e-05)
(0 -0 1.295545003e-05)
(0 -0 1.261176274e-05)
(0 -0 1.224563214e-05)
(0 -0 1.185960429e-05)
(0 -0 1.145637111e-05)
(0 -0 1.103875444e-05)
(0 -0 1.060969794e-05)
(0 -0 1.017224557e-05)
(0 -0 9.72950323e-06)
(0 -0 2.338602254e-06)
(0 -0 2.463583676e-06)
(0 -0 2.637879508e-06)
(0 -0 2.858609988e-06)
(0 -0 3.122324053e-06)
(0 -0 3.425384904e-06)
(0 -0 3.764202084e-06)
(0 -0 4.135277003e-06)
(0 -0 4.534915174e-06)
(0 -0 4.958892362e-06)
(0 -0 5.402480559e-06)
(0 -0 5.860776748e-06)
(0 -0 6.329017849e-06)
(0 -0 6.802700357e-06)
(0 -0 7.277464873e-06)
(0 -0 7.748957579e-06)
(0 -0 8.212796179e-06)
(0 -0 8.664619813e-06)
(0 -0 9.100303546e-06)
(0 -0 9.516081369e-06)
(0 -0 9.908629095e-06)
(0 -0 1.02750802e-05)
(0 -0 1.06129745e-05)
(0 -0 1.092018962e-05)
(0 -0 1.119487258e-05)
(0 -0 1.143538108e-05)
(0 -0 1.164024423e-05)
(0 -0 1.180814893e-05)
(0 -0 1.193795501e-05)
(0 -0 1.202873614e-05)
(0 -0 1.207983133e-05)
(0 -0 1.209088601e-05)
(0 -0 1.206186863e-05)
(0 -0 1.199306037e-05)
(0 -0 1.188502606e-05)
(0 -0 1.173858026e-05)
(0 -0 1.155476179e-05)
(0 -0 1.133482338e-05)
(0 -0 1.108023596e-05)
(0 -0 1.079269944e-05)
(0 -0 1.047414917e-05)
(0 -0 1.012675224e-05)
(0 -0 9.752896347e-06)
(0 -0 9.355175617e-06)
(0 -0 8.936371188e-06)
(0 -0 8.499425329e-06)
(0 -0 8.047419163e-06)
(0 -0 7.583559728e-06)
(0 -0 7.111159595e-06)
(0 -0 6.63359494e-06)
(0 -0 -4.29555186e-07)
(0 -0 -3.006723311e-07)
(0 -0 -1.200200118e-07)
(0 -0 1.091891006e-07)
(0 -0 3.831159524e-07)
(0 -0 6.985353863e-07)
(0 -0 1.052913535e-06)
(0 -0 1.443451616e-06)
(0 -0 1.866094694e-06)
(0 -0 2.315487624e-06)
(0 -0 2.785800266e-06)
(0 -0 3.271548802e-06)
(0 -0 3.767841903e-06)
(0 -0 4.27014101e-06)
(0 -0 4.773955566e-06)
(0 -0 5.274672235e-06)
(0 -0 5.767578814e-06)
(0 -0 6.248011906e-06)
(0 -0 6.711541094e-06)
(0 -0 7.154118345e-06)
(0 -0 7.572155643e-06)
(0 -0 7.962534462e-06)
(0 -0 8.322563051e-06)
(0 -0 8.649908999e-06)
(0 -0 8.942528313e-06)
(0 -0 9.198602782e-06)
(0 -0 9.416497094e-06)
(0 -0 9.59474592e-06)
(0 -0 9.732074981e-06)
(0 -0 9.827450073e-06)
(0 -0 9.880135695e-06)
(0 -0 9.88973988e-06)
(0 -0 9.856229474e-06)
(0 -0 9.779914866e-06)
(0 -0 9.661415768e-06)
(0 -0 9.5016244e-06)
(0 -0 9.301679209e-06)
(0 -0 9.062955067e-06)
(0 -0 8.787068485e-06)
(0 -0 8.475889958e-06)
(0 -0 8.131551053e-06)
(0 -0 7.756435942e-06)
(0 -0 7.353159851e-06)
(0 -0 6.924549645e-06)
(0 -0 6.473633832e-06)
(0 -0 6.003629003e-06)
(0 -0 5.517911498e-06)
(0 -0 5.019983509e-06)
(0 -0 4.513441811e-06)
(0 -0 4.001938988e-06)
(0 -0 -2.875581751e-06)
(0 -0 -2.743091986e-06)
(0 -0 -2.556152994e-06)
(0 -0 -2.317630979e-06)
(0 -0 -2.031371153e-06)
(0 -0 -1.700726546e-06)
(0 -0 -1.328482554e-06)
(0 -0 -9.17781125e-07)
(0 -0 -4.729817854e-07)
(0 -0 4.471966286e-10)
(0 -0 4.96741144e-07)
(0 -0 1.010467357e-06)
(0 -0 1.536560569e-06)
(0 -0 2.070045196e-06)
(0 -0 2.605834379e-06)
(0 -0 3.13873373e-06)
(0 -0 3.663568159e-06)
(0 -0 4.175330041e-06)
(0 -0 4.669309859e-06)
(0 -0 5.141199472e-06)
(0 -0 5.587155917e-06)
(0 -0 6.003815592e-06)
(0 -0 6.388259234e-06)
(0 -0 6.737945578e-06)
(0 -0 7.050636454e-06)
(0 -0 7.324330087e-06)
(0 -0 7.557216957e-06)
(0 -0 7.747670216e-06)
(0 -0 7.894274699e-06)
(0 -0 7.995885089e-06)
(0 -0 8.05169097e-06)
(0 -0 8.061263489e-06)
(0 -0 8.024568135e-06)
(0 -0 7.941944377e-06)
(0 -0 7.814066492e-06)
(0 -0 7.641904718e-06)
(0 -0 7.426700582e-06)
(0 -0 7.169959586e-06)
(0 -0 6.873455834e-06)
(0 -0 6.539240526e-06)
(0 -0 6.16964642e-06)
(0 -0 5.767280789e-06)
(0 -0 5.335005156e-06)
(0 -0 4.875912806e-06)
(0 -0 4.393315935e-06)
(0 -0 3.890732479e-06)
(0 -0 3.371852158e-06)
(0 -0 2.840487899e-06)
(0 -0 2.300535666e-06)
(0 -0 1.75593609e-06)
(0 -0 -5.055758516e-06)
(0 -0 -4.917501213e-06)
(0 -0 -4.721705473e-06)
(0 -0 -4.470664052e-06)
(0 -0 -4.168045783e-06)
(0 -0 -3.817885337e-06)
(0 -0 -3.424295002e-06)
(0 -0 -2.991426316e-06)
(0 -0 -2.523686831e-06)
(0 -0 -2.025927016e-06)
(0 -0 -1.50335755e-06)
(0 -0 -9.613314942e-07)
(0 -0 -4.052032407e-07)
(0 -0 1.596749482e-07)
(0 -0 7.27887567e-07)
(0 -0 1.293915964e-06)
(0 -0 1.852186839e-06)
(0 -0 2.397213563e-06)
(0 -0 2.923787958e-06)
(0 -0 3.427155053e-06)
(0 -0 3.903112783e-06)
(0 -0 4.348020395e-06)
(0 -0 4.758737193e-06)
(0 -0 5.132529295e-06)
(0 -0 5.466976104e-06)
(0 -0 5.759895615e-06)
(0 -0 6.00930155e-06)
(0 -0 6.213401525e-06)
(0 -0 6.370636541e-06)
(0 -0 6.479748255e-06)
(0 -0 6.539849294e-06)
(0 -0 6.55047118e-06)
(0 -0 6.511575156e-06)
(0 -0 6.423527678e-06)
(0 -0 6.287056904e-06)
(0 -0 6.103212143e-06)
(0 -0 5.873341444e-06)
(0 -0 5.599088195e-06)
(0 -0 5.282396202e-06)
(0 -0 4.925512446e-06)
(0 -0 4.530985373e-06)
(0 -0 4.101661075e-06)
(0 -0 3.640673402e-06)
(0 -0 3.151421882e-06)
(0 -0 2.637542225e-06)
(0 -0 2.102875186e-06)
(0 -0 1.551426095e-06)
(0 -0 9.873140988e-07)
(0 -0 4.147282687e-07)
(0 -0 -1.621100205e-07)
(0 -0 -6.995747645e-06)
(0 -0 -6.85187203e-06)
(0 -0 -6.647478375e-06)
(0 -0 -6.3846502e-06)
(0 -0 -6.067034553e-06)
(0 -0 -5.698682755e-06)
(0 -0 -5.283797321e-06)
(0 -0 -4.826697122e-06)
(0 -0 -4.332067474e-06)
(0 -0 -3.805222537e-06)
(0 -0 -3.252010509e-06)
(0 -0 -2.678426275e-06)
(0 -0 -2.090254961e-06)
(0 -0 -1.492985532e-06)
(0 -0 -8.9197838e-07)
(0 -0 -2.926932869e-07)
(0 -0 2.99213128e-07)
(0 -0 8.779874824e-07)
(0 -0 1.438013326e-06)
(0 -0 1.974062287e-06)
(0 -0 2.481467005e-06)
(0 -0 2.956178905e-06)
(0 -0 3.394726602e-06)
(0 -0 3.794116181e-06)
(0 -0 4.151716286e-06)
(0 -0 4.465161529e-06)
(0 -0 4.732296858e-06)
(0 -0 4.951173896e-06)
(0 -0 5.120095861e-06)
(0 -0 5.237692424e-06)
(0 -0 5.302996271e-06)
(0 -0 5.315494251e-06)
(0 -0 5.275138047e-06)
(0 -0 5.182317384e-06)
(0 -0 5.037814146e-06)
(0 -0 4.842760787e-06)
(0 -0 4.598618893e-06)
(0 -0 4.307178508e-06)
(0 -0 3.970565469e-06)
(0 -0 3.591242525e-06)
(0 -0 3.172002617e-06)
(0 -0 2.71596314e-06)
(0 -0 2.226559136e-06)
(0 -0 1.707517426e-06)
(0 -0 1.162807942e-06)
(0 -0 5.965947186e-07)
(0 -0 1.319655777e-08)
(0 -0 -5.829588982e-07)
(0 -0 -1.187387922e-06)
(0 -0 -1.795593707e-06)
(0 -0 -8.716774487e-06)
(0 -0 -8.567026141e-06)
(0 -0 -8.353686121e-06)
(0 -0 -8.078681656e-06)
(0 -0 -7.745783638e-06)
(0 -0 -7.359161732e-06)
(0 -0 -6.923107125e-06)
(0 -0 -6.442036338e-06)
(0 -0 -5.920776556e-06)
(0 -0 -5.364847367e-06)
(0 -0 -4.780383674e-06)
(0 -0 -4.173770456e-06)
(0 -0 -3.551289868e-06)
(0 -0 -2.918984627e-06)
(0 -0 -2.282728175e-06)
(0 -0 -1.648356115e-06)
(0 -0 -1.021733207e-06)
(0 -0 -4.087093457e-07)
(0 -0 1.850102885e-07)
(0 -0 7.54027496e-07)
(0 -0 1.29339351e-06)
(0 -0 1.798695058e-06)
(0 -0 2.266070309e-06)
(0 -0 2.692162194e-06)
(0 -0 3.074032638e-06)
(0 -0 3.409070227e-06)
(0 -0 3.694923822e-06)
(0 -0 3.929484996e-06)
(0 -0 4.110924055e-06)
(0 -0 4.237763374e-06)
(0 -0 4.30895706e-06)
(0 -0 4.323945176e-06)
(0 -0 4.282665457e-06)
(0 -0 4.18552714e-06)
(0 -0 4.03336699e-06)
(0 -0 3.827409461e-06)
(0 -0 3.569244339e-06)
(0 -0 3.260823727e-06)
(0 -0 2.904470279e-06)
(0 -0 2.502882935e-06)
(0 -0 2.059130285e-06)
(0 -0 1.576633791e-06)
(0 -0 1.059146227e-06)
(0 -0 5.107176746e-07)
(0 -0 -6.435771012e-08)
(0 -0 -6.615942336e-07)
(0 -0 -1.276350937e-06)
(0 -0 -1.903873923e-06)
(0 -0 -2.539357938e-06)
(0 -0 -3.178002366e-06)
(0 -0 -1.023675378e-05)
(0 -0 -1.008093824e-05)
(0 -0 -9.858378556e-06)
(0 -0 -9.570843293e-06)
(0 -0 -9.222259144e-06)
(0 -0 -8.81696324e-06)
(0 -0 -8.359386658e-06)
(0 -0 -7.854097198e-06)
(0 -0 -7.306113372e-06)
(0 -0 -6.721173833e-06)
(0 -0 -6.105632442e-06)
(0 -0 -5.466093786e-06)
(0 -0 -4.809103562e-06)
(0 -0 -4.141065399e-06)
(0 -0 -3.468326543e-06)
(0 -0 -2.797264489e-06)
(0 -0 -2.134262628e-06)
(0 -0 -1.485579677e-06)
(0 -0 -8.571850462e-07)
(0 -0 -2.546297151e-07)
(0 -0 3.170186337e-07)
(0 -0 8.531854198e-07)
(0 -0 1.349768148e-06)
(0 -0 1.803101914e-06)
(0 -0 2.209916798e-06)
(0 -0 2.567290945e-06)
(0 -0 2.87261163e-06)
(0 -0 3.123563962e-06)
(0 -0 3.318161171e-06)
(0 -0 3.454810567e-06)
(0 -0 3.532388319e-06)
(0 -0 3.550290541e-06)
(0 -0 3.508443088e-06)
(0 -0 3.407276423e-06)
(0 -0 3.247686615e-06)
(0 -0 3.031000908e-06)
(0 -0 2.758955222e-06)
(0 -0 2.43368452e-06)
(0 -0 2.057726159e-06)
(0 -0 1.63402985e-06)
(0 -0 1.165955104e-06)
(0 -0 6.572416468e-07)
(0 -0 1.119645481e-07)
(0 -0 -4.655069223e-07)
(0 -0 -1.070550431e-06)
(0 -0 -1.698337625e-06)
(0 -0 -2.343876752e-06)
(0 -0 -3.002055951e-06)
(0 -0 -3.667706535e-06)
(0 -0 -4.335678975e-06)
(0 -0 -1.156914665e-05)
(0 -0 -1.140718351e-05)
(0 -0 -1.117528399e-05)
(0 -0 -1.087506153e-05)
(0 -0 -1.051060313e-05)
(0 -0 -1.008642058e-05)
(0 -0 -9.607091719e-06)
(0 -0 -9.077345141e-06)
(0 -0 -8.502409378e-06)
(0 -0 -7.888278301e-06)
(0 -0 -7.241574359e-06)
(0 -0 -6.569156745e-06)
(0 -0 -5.877808346e-06)
(0 -0 -5.174181246e-06)
(0 -0 -4.464925892e-06)
(0 -0 -3.756813648e-06)
(0 -0 -3.056709215e-06)
(0 -0 -2.371386548e-06)
(0 -0 -1.707282619e-06)
(0 -0 -1.070303264e-06)
(0 -0 -4.657466233e-07)
(0 -0 1.016623915e-07)
(0 -0 6.27681293e-07)
(0 -0 1.108460903e-06)
(0 -0 1.540487349e-06)
(0 -0 1.920556045e-06)
(0 -0 2.245770063e-06)
(0 -0 2.513562446e-06)
(0 -0 2.721745988e-06)
(0 -0 2.868584252e-06)
(0 -0 2.952862147e-06)
(0 -0 2.973929903e-06)
(0 -0 2.931707395e-06)
(0 -0 2.826656708e-06)
(0 -0 2.659743658e-06)
(0 -0 2.4324063e-06)
(0 -0 2.146535793e-06)
(0 -0 1.804466051e-06)
(0 -0 1.408970074e-06)
(0 -0 9.632622037e-07)
(0 -0 4.709925263e-07)
(0 -0 -6.378639057e-08)
(0 -0 -6.366728774e-07)
(0 -0 -1.242958952e-06)
(0 -0 -1.877660275e-06)
(0 -0 -2.535560952e-06)
(0 -0 -3.211269382e-06)
(0 -0 -3.899267629e-06)
(0 -0 -4.593980293e-06)
(0 -0 -5.289879654e-06)
(0 -0 -1.272406756e-05)
(0 -0 -1.255594589e-05)
(0 -0 -1.231468312e-05)
(0 -0 -1.200175233e-05)
(0 -0 -1.162140375e-05)
(0 -0 -1.11783242e-05)
(0 -0 -1.067723588e-05)
(0 -0 -1.012302435e-05)
(0 -0 -9.521123199e-06)
(0 -0 -8.877780263e-06)
(0 -0 -8.199899494e-06)
(0 -0 -7.494626796e-06)
(0 -0 -6.76902268e-06)
(0 -0 -6.030005032e-06)
(0 -0 -5.284493284e-06)
(0 -0 -4.539559764e-06)
(0 -0 -3.80243253e-06)
(0 -0 -3.080317497e-06)
(0 -0 -2.380119766e-06)
(0 -0 -1.70818973e-06)
(0 -0 -1.070190557e-06)
(0 -0 -4.71111212e-07)
(0 -0 8.462007131e-08)
(0 -0 5.929963109e-07)
(0 -0 1.050325545e-06)
(0 -0 1.453182709e-06)
(0 -0 1.798418332e-06)
(0 -0 2.083212228e-06)
(0 -0 2.30515627e-06)
(0 -0 2.462345356e-06)
(0 -0 2.553452763e-06)
(0 -0 2.577771377e-06)
(0 -0 2.535214982e-06)
(0 -0 2.42628738e-06)
(0 -0 2.252037195e-06)
(0 -0 2.014019888e-06)
(0 -0 1.714280812e-06)
(0 -0 1.355354467e-06)
(0 -0 9.402622672e-07)
(0 -0 4.724990881e-07)
(0 -0 -4.39880914e-08)
(0 -0 -6.048312895e-07)
(0 -0 -1.205285587e-06)
(0 -0 -1.840272062e-06)
(0 -0 -2.50440894e-06)
(0 -0 -3.192052911e-06)
(0 -0 -3.897354206e-06)
(0 -0 -4.614305712e-06)
(0 -0 -5.336834263e-06)
(0 -0 -6.058967083e-06)
(0 -0 -1.370923993e-05)
(0 -0 -1.353500667e-05)
(0 -0 -1.328444269e-05)
(0 -0 -1.295889684e-05)
(0 -0 -1.256278321e-05)
(0 -0 -1.210096144e-05)
(0 -0 -1.157829532e-05)
(0 -0 -1.099982494e-05)
(0 -0 -1.037118387e-05)
(0 -0 -9.69886406e-06)
(0 -0 -8.990041417e-06)
(0 -0 -8.252147245e-06)
(0 -0 -7.492535286e-06)
(0 -0 -6.718417037e-06)
(0 -0 -5.937003473e-06)
(0 -0 -5.155661896e-06)
(0 -0 -4.381935569e-06)
(0 -0 -3.623384309e-06)
(0 -0 -2.887309251e-06)
(0 -0 -2.180477177e-06)
(0 -0 -1.50894731e-06)
(0 -0 -8.780458913e-07)
(0 -0 -2.9246518e-07)
(0 -0 2.435801551e-07)
(0 -0 7.262105898e-07)
(0 -0 1.151801212e-06)
(0 -0 1.516980195e-06)
(0 -0 1.818696747e-06)
(0 -0 2.054330034e-06)
(0 -0 2.221802443e-06)
(0 -0 2.319666125e-06)
(0 -0 2.347147065e-06)
(0 -0 2.304146032e-06)
(0 -0 2.191205419e-06)
(0 -0 2.009458132e-06)
(0 -0 1.760581612e-06)
(0 -0 1.446778249e-06)
(0 -0 1.070781417e-06)
(0 -0 6.358595802e-07)
(0 -0 1.457950724e-07)
(0 -0 -3.951506745e-07)
(0 -0 -9.822664245e-07)
(0 -0 -1.610426615e-06)
(0 -0 -2.274143854e-06)
(0 -0 -2.967612282e-06)
(0 -0 -3.684758732e-06)
(0 -0 -4.419258328e-06)
(0 -0 -5.164595978e-06)
(0 -0 -5.914150124e-06)
(0 -0 -6.661264802e-06)
(0 -0 -1.453069549e-05)
(0 -0 -1.435044983e-05)
(0 -0 -1.409072885e-05)
(0 -0 -1.375277037e-05)
(0 -0 -1.334115041e-05)
(0 -0 -1.286089724e-05)
(0 -0 -1.231701288e-05)
(0 -0 -1.171468959e-05)
(0 -0 -1.105975633e-05)
(0 -0 -1.035893992e-05)