0 0 	0 	0 	
0.020202 0.104 	-6.64138e-11 	0 	
0.040404 0.207857 	-1.33022e-10 	0 	
0.0606061 0.300777 	-2.14575e-10 	0 	
0.0808081 0.383855 	-3.09632e-10 	0 	
0.10101 0.466079 	-4.05052e-10 	0 	
0.121212 0.532531 	-5.01665e-10 	0 	
0.141414 0.598984 	-5.98279e-10 	0 	
0.161616 0.657769 	-6.78781e-10 	0 	
0.181818 0.710919 	-7.47301e-10 	0 	
0.20202 0.76299 	-8.12962e-10 	0 	
0.222222 0.805495 	-8.53622e-10 	0 	
0.242424 0.848 	-8.94282e-10 	0 	
0.262626 0.885168 	-9.2301e-10 	0 	
0.282828 0.919153 	-9.44663e-10 	0 	
0.30303 0.952105 	-9.64276e-10 	0 	
0.323232 0.97927 	-9.72502e-10 	0 	
0.343434 1.00643 	-9.80729e-10 	0 	
0.363636 1.02991 	-9.81901e-10 	0 	
0.383838 1.05161 	-9.79698e-10 	0 	
0.40404 1.07243 	-9.75821e-10 	0 	
0.424242 1.08975 	-9.65298e-10 	0 	
0.444444 1.10708 	-9.54774e-10 	0 	
0.464646 1.12185 	-9.39437e-10 	0 	
0.484848 1.13566 	-9.22283e-10 	0 	
0.505051 1.14876 	-9.03803e-10 	0 	
0.525253 1.15976 	-8.8136e-10 	0 	
0.545455 1.17075 	-8.58917e-10 	0 	
0.565657 1.17998 	-8.33198e-10 	0 	
0.585859 1.1887 	-8.06528e-10 	0 	
0.606061 1.19687 	-7.78846e-10 	0 	
0.626263 1.20376 	-7.488e-10 	0 	
0.646465 1.21064 	-7.18754e-10 	0 	
0.666667 1.2163 	-6.86498e-10 	0 	
0.686869 1.2217 	-6.53769e-10 	0 	
0.707071 1.22667 	-6.20305e-10 	0 	
0.727273 1.23084 	-5.85466e-10 	0 	
0.747475 1.23502 	-5.50627e-10 	0 	
0.767677 1.23831 	-5.14364e-10 	0 	
0.787879 1.24147 	-4.77892e-10 	0 	
0.808081 1.24429 	-4.40934e-10 	0 	
0.828283 1.24661 	-4.03235e-10 	0 	
0.848485 1.24892 	-3.65537e-10 	0 	
0.868687 1.25054 	-3.27035e-10 	0 	
0.888889 1.25211 	-2.88461e-10 	0 	
0.909091 1.25339 	-2.49642e-10 	0 	
0.929293 1.2543 	-2.10507e-10 	0 	
0.949495 1.25522 	-1.71372e-10 	0 	
0.969697 1.25553 	-1.31978e-10 	0 	
0.989899 1.25583 	-9.25703e-11 	0 	
1.0101 1.25583 	-5.31707e-11 	0 	
1.0303 1.25553 	-1.37672e-11 	0 	
1.05051 1.25522 	2.56235e-11 	0 	
1.07071 1.2543 	6.47471e-11 	0 	
1.09091 1.25339 	1.03871e-10 	0 	
1.11111 1.25211 	1.42677e-10 	0 	
1.13131 1.25054 	1.81233e-10 	0 	
1.15152 1.24892 	2.19719e-10 	0 	
1.17172 1.24661 	2.57397e-10 	0 	
1.19192 1.24429 	2.95074e-10 	0 	
1.21212 1.24147 	3.3201e-10 	0 	
1.23232 1.23831 	3.68459e-10 	0 	
1.25253 1.23502 	4.047e-10 	0 	
1.27273 1.23084 	4.39519e-10 	0 	
1.29293 1.22667 	4.74337e-10 	0 	
1.31313 1.2217 	5.07784e-10 	0 	
1.33333 1.2163 	5.40497e-10 	0 	
1.35354 1.21064 	5.72741e-10 	0 	
1.37374 1.20376 	6.02784e-10 	0 	
1.39394 1.19687 	6.32828e-10 	0 	
1.41414 1.1887 	6.60523e-10 	0 	
1.43434 1.17998 	6.87214e-10 	0 	
1.45455 1.17075 	7.12965e-10 	0 	
1.47475 1.15976 	7.35476e-10 	0 	
1.49495 1.14876 	7.57986e-10 	0 	
1.51515 1.13566 	7.76606e-10 	0 	
1.53535 1.12185 	7.93925e-10 	0 	
1.55556 1.10708 	8.09479e-10 	0 	
1.57576 1.08975 	8.20362e-10 	0 	
1.59596 1.07243 	8.31245e-10 	0 	
1.61616 1.05161 	8.35774e-10 	0 	
1.63636 1.02991 	8.38704e-10 	0 	
1.65657 1.00643 	8.38479e-10 	0 	
1.67677 0.97927 	8.31668e-10 	0 	
1.69697 0.952105 	8.24856e-10 	0 	
1.71717 0.919153 	8.07946e-10 	0 	
1.73737 0.885168 	7.89234e-10 	0 	
1.75758 0.848 	7.64837e-10 	0 	
1.77778 0.805495 	7.30882e-10 	0 	
1.79798 0.76299 	6.96927e-10 	0 	
1.81818 0.710919 	6.4419e-10 	0 	
1.83838 0.657769 	5.89309e-10 	0 	
1.85859 0.598984 	5.24363e-10 	0 	
1.87879 0.532531 	4.45794e-10 	0 	
1.89899 0.466079 	3.67225e-10 	0 	
1.91919 0.383855 	2.84453e-10 	0 	
1.93939 0.300777 	2.01685e-10 	0 	
1.9596 0.207857 	1.27806e-10 	0 	
1.9798 0.104 	6.38287e-11 	0 	
2 1.26839e-15 	5.7149e-25 	0 	
